TITLE = "B00007"
VARIABLES = "X", "Y", "Vx", "Vy", "Vz", "flag"
ZONE T="B00007", I=70, J=78
308 191 0.000000 0.000000 0.000000 0
310 191 0.000000 0.000000 0.000000 0
312 191 0.000000 0.000000 0.000000 0
314 191 0.000000 0.000000 0.000000 0
316 191 0.000000 0.000000 0.000000 0
318 191 0.000000 0.000000 0.000000 0
320 191 0.000000 0.000000 0.000000 0
322 191 0.000000 0.000000 0.000000 0
324 191 0.000000 0.000000 0.000000 0
326 191 0.000000 0.000000 0.000000 0
328 191 0.000000 0.000000 0.000000 0
330 191 0.000000 0.000000 0.000000 0
332 191 0.000000 0.000000 0.000000 0
334 191 0.000000 0.000000 0.000000 0
336 191 0.000000 0.000000 0.000000 0
338 191 0.000000 0.000000 0.000000 0
340 191 0.000000 0.000000 0.000000 0
342 191 0.000000 0.000000 0.000000 0
344 191 0.000000 0.000000 0.000000 0
346 191 0.000000 0.000000 0.000000 0
348 191 0.000000 0.000000 0.000000 0
350 191 0.000000 0.000000 0.000000 0
352 191 0.000000 0.000000 0.000000 0
354 191 0.000000 0.000000 0.000000 0
356 191 0.000000 0.000000 0.000000 0
358 191 0.000000 0.000000 0.000000 0
360 191 0.000000 0.000000 0.000000 0
362 191 0.000000 0.000000 0.000000 0
364 191 0.000000 0.000000 0.000000 0
366 191 0.000000 0.000000 0.000000 0
368 191 0.000000 0.000000 0.000000 0
370 191 0.000000 0.000000 0.000000 0
372 191 0.000000 0.000000 0.000000 0
374 191 0.000000 0.000000 0.000000 0
376 191 0.000000 0.000000 0.000000 0
378 191 0.000000 0.000000 0.000000 0
380 191 0.000000 0.000000 0.000000 0
382 191 0.000000 0.000000 0.000000 0
384 191 0.000000 0.000000 0.000000 0
386 191 0.000000 0.000000 0.000000 0
388 191 0.000000 0.000000 0.000000 0
390 191 0.000000 0.000000 0.000000 0
392 191 0.000000 0.000000 0.000000 0
394 191 0.000000 0.000000 0.000000 0
396 191 0.000000 0.000000 0.000000 0
398 191 0.000000 0.000000 0.000000 0
400 191 0.000000 0.000000 0.000000 0
402 191 0.000000 0.000000 0.000000 0
404 191 0.000000 0.000000 0.000000 0
406 191 0.000000 0.000000 0.000000 0
408 191 0.000000 0.000000 0.000000 0
410 191 0.000000 0.000000 0.000000 0
412 191 0.000000 0.000000 0.000000 0
414 191 0.000000 0.000000 0.000000 0
416 191 0.000000 0.000000 0.000000 0
418 191 0.000000 0.000000 0.000000 0
420 191 0.000000 0.000000 0.000000 0
422 191 0.000000 0.000000 0.000000 0
424 191 0.000000 0.000000 0.000000 0
426 191 0.000000 0.000000 0.000000 0
428 191 0.000000 0.000000 0.000000 0
430 191 0.000000 0.000000 0.000000 0
432 191 0.000000 0.000000 0.000000 0
434 191 0.000000 0.000000 0.000000 0
436 191 0.000000 0.000000 0.000000 0
438 191 0.000000 0.000000 0.000000 0
440 191 0.000000 0.000000 0.000000 0
442 191 0.000000 0.000000 0.000000 0
444 191 0.000000 0.000000 0.000000 0
446 191 0.000000 0.000000 0.000000 0
308 193 0.000000 0.000000 0.000000 0
310 193 0.000000 0.000000 0.000000 0
312 193 0.000000 0.000000 0.000000 0
314 193 0.000000 0.000000 0.000000 0
316 193 0.000000 0.000000 0.000000 0
318 193 0.000000 0.000000 0.000000 0
320 193 0.000000 0.000000 0.000000 0
322 193 0.000000 0.000000 0.000000 0
324 193 0.000000 0.000000 0.000000 0
326 193 0.000000 0.000000 0.000000 0
328 193 0.000000 0.000000 0.000000 0
330 193 0.000000 0.000000 0.000000 0
332 193 0.000000 0.000000 0.000000 0
334 193 0.000000 0.000000 0.000000 0
336 193 0.000000 0.000000 0.000000 0
338 193 0.000000 0.000000 0.000000 0
340 193 0.000000 0.000000 0.000000 0
342 193 0.000000 0.000000 0.000000 0
344 193 0.000000 0.000000 0.000000 0
346 193 0.000000 0.000000 0.000000 0
348 193 0.000000 0.000000 0.000000 0
350 193 0.000000 0.000000 0.000000 0
352 193 0.000000 0.000000 0.000000 0
354 193 0.000000 0.000000 0.000000 0
356 193 0.000000 0.000000 0.000000 0
358 193 0.000000 0.000000 0.000000 0
360 193 0.000000 0.000000 0.000000 0
362 193 0.000000 0.000000 0.000000 0
364 193 0.000000 0.000000 0.000000 0
366 193 0.000000 0.000000 0.000000 0
368 193 0.000000 0.000000 0.000000 0
370 193 0.000000 0.000000 0.000000 0
372 193 0.000000 0.000000 0.000000 0
374 193 0.000000 0.000000 0.000000 0
376 193 0.000000 0.000000 0.000000 0
378 193 0.000000 0.000000 0.000000 0
380 193 0.000000 0.000000 0.000000 0
382 193 0.000000 0.000000 0.000000 0
384 193 0.000000 0.000000 0.000000 0
386 193 0.000000 0.000000 0.000000 0
388 193 0.000000 0.000000 0.000000 0
390 193 0.000000 0.000000 0.000000 0
392 193 0.000000 0.000000 0.000000 0
394 193 0.000000 0.000000 0.000000 0
396 193 0.000000 0.000000 0.000000 0
398 193 0.000000 0.000000 0.000000 0
400 193 0.000000 0.000000 0.000000 0
402 193 0.000000 0.000000 0.000000 0
404 193 0.000000 0.000000 0.000000 0
406 193 0.000000 0.000000 0.000000 0
408 193 0.000000 0.000000 0.000000 0
410 193 0.000000 0.000000 0.000000 0
412 193 0.000000 0.000000 0.000000 0
414 193 0.000000 0.000000 0.000000 0
416 193 0.000000 0.000000 0.000000 0
418 193 0.000000 0.000000 0.000000 0
420 193 0.000000 0.000000 0.000000 0
422 193 0.000000 0.000000 0.000000 0
424 193 0.000000 0.000000 0.000000 0
426 193 0.000000 0.000000 0.000000 0
428 193 0.000000 0.000000 0.000000 0
430 193 0.000000 0.000000 0.000000 0
432 193 0.000000 0.000000 0.000000 0
434 193 0.000000 0.000000 0.000000 0
436 193 0.000000 0.000000 0.000000 0
438 193 0.000000 0.000000 0.000000 0
440 193 0.000000 0.000000 0.000000 0
442 193 0.000000 0.000000 0.000000 0
444 193 0.000000 0.000000 0.000000 0
446 193 0.000000 0.000000 0.000000 0
308 195 0.000000 0.000000 0.000000 0
310 195 0.000000 0.000000 0.000000 0
312 195 0.000000 0.000000 0.000000 0
314 195 0.000000 0.000000 0.000000 0
316 195 0.000000 0.000000 0.000000 0
318 195 0.000000 0.000000 0.000000 0
320 195 0.000000 0.000000 0.000000 0
322 195 0.000000 0.000000 0.000000 0
324 195 0.000000 0.000000 0.000000 0
326 195 0.000000 0.000000 0.000000 0
328 195 0.000000 0.000000 0.000000 0
330 195 0.000000 0.000000 0.000000 0
332 195 0.000000 0.000000 0.000000 0
334 195 0.000000 0.000000 0.000000 0
336 195 0.000000 0.000000 0.000000 0
338 195 0.000000 0.000000 0.000000 0
340 195 0.000000 0.000000 0.000000 0
342 195 0.000000 0.000000 0.000000 0
344 195 0.000000 0.000000 0.000000 0
346 195 0.000000 0.000000 0.000000 0
348 195 0.000000 0.000000 0.000000 0
350 195 0.000000 0.000000 0.000000 0
352 195 0.000000 0.000000 0.000000 0
354 195 0.000000 0.000000 0.000000 0
356 195 0.000000 0.000000 0.000000 0
358 195 0.000000 0.000000 0.000000 0
360 195 0.000000 0.000000 0.000000 0
362 195 0.000000 0.000000 0.000000 0
364 195 0.000000 0.000000 0.000000 0
366 195 0.000000 0.000000 0.000000 0
368 195 0.000000 0.000000 0.000000 0
370 195 0.000000 0.000000 0.000000 0
372 195 0.000000 0.000000 0.000000 0
374 195 0.000000 0.000000 0.000000 0
376 195 0.000000 0.000000 0.000000 0
378 195 0.000000 0.000000 0.000000 0
380 195 0.000000 0.000000 0.000000 0
382 195 0.000000 0.000000 0.000000 0
384 195 0.000000 0.000000 0.000000 0
386 195 0.000000 0.000000 0.000000 0
388 195 0.000000 0.000000 0.000000 0
390 195 0.000000 0.000000 0.000000 0
392 195 0.000000 0.000000 0.000000 0
394 195 0.000000 0.000000 0.000000 0
396 195 0.000000 0.000000 0.000000 0
398 195 0.000000 0.000000 0.000000 0
400 195 0.000000 0.000000 0.000000 0
402 195 0.000000 0.000000 0.000000 0
404 195 0.000000 0.000000 0.000000 0
406 195 0.000000 0.000000 0.000000 0
408 195 0.000000 0.000000 0.000000 0
410 195 0.000000 0.000000 0.000000 0
412 195 0.000000 0.000000 0.000000 0
414 195 0.000000 0.000000 0.000000 0
416 195 0.000000 0.000000 0.000000 0
418 195 0.000000 0.000000 0.000000 0
420 195 0.000000 0.000000 0.000000 0
422 195 0.000000 0.000000 0.000000 0
424 195 0.000000 0.000000 0.000000 0
426 195 0.000000 0.000000 0.000000 0
428 195 0.000000 0.000000 0.000000 0
430 195 0.000000 0.000000 0.000000 0
432 195 0.000000 0.000000 0.000000 0
434 195 0.000000 0.000000 0.000000 0
436 195 0.000000 0.000000 0.000000 0
438 195 0.000000 0.000000 0.000000 0
440 195 0.000000 0.000000 0.000000 0
442 195 0.000000 0.000000 0.000000 0
444 195 0.000000 0.000000 0.000000 0
446 195 0.000000 0.000000 0.000000 0
308 197 0.000000 0.000000 0.000000 0
310 197 0.000000 0.000000 0.000000 0
312 197 0.000000 0.000000 0.000000 0
314 197 0.000000 0.000000 0.000000 0
316 197 0.000000 0.000000 0.000000 0
318 197 -0.141926 -0.135847 -0.105397 1
320 197 -0.114231 -0.166122 -0.111229 1
322 197 -0.083391 -0.220881 -0.108793 1
324 197 -0.050863 -0.264175 -0.083081 1
326 197 -0.011187 -0.294344 -0.072955 1
328 197 0.030233 -0.310400 -0.090005 1
330 197 0.070336 -0.318879 -0.107382 1
332 197 0.119033 -0.324831 -0.122495 1
334 197 0.174836 -0.329694 -0.139497 1
336 197 0.232195 -0.329634 -0.145707 1
338 197 0.288650 -0.325316 -0.137492 1
340 197 0.338025 -0.316681 -0.123436 1
342 197 0.370718 -0.298242 -0.110114 1
344 197 0.389946 -0.269985 -0.101230 1
346 197 0.404841 -0.237374 -0.100039 1
348 197 0.425397 -0.202852 -0.117260 1
350 197 0.451012 -0.169791 -0.148445 1
352 197 0.476625 -0.136430 -0.173180 1
354 197 0.501623 -0.099816 -0.175770 1
356 197 0.524997 -0.062647 -0.158780 1
358 197 0.542391 -0.025945 -0.129210 1
360 197 0.553477 0.007771 -0.104663 1
362 197 0.552488 0.042223 -0.103576 1
364 197 0.544270 0.081053 -0.117317 1
366 197 0.534945 0.123512 -0.131382 1
368 197 0.528719 0.169686 -0.136326 1
370 197 0.527598 0.215620 -0.130679 1
372 197 0.525745 0.253335 -0.115270 1
374 197 0.518973 0.283095 -0.096828 1
376 197 0.503421 0.304921 -0.078919 1
378 197 0.477876 0.319866 -0.067158 1
380 197 0.448966 0.332989 -0.065359 1
382 197 0.420745 0.346978 -0.071027 1
384 197 0.394856 0.362085 -0.076378 1
386 197 0.372716 0.377747 -0.072894 1
388 197 0.353215 0.390290 -0.063357 1
390 197 0.334207 0.402978 -0.057089 1
392 197 0.319192 0.415953 -0.059897 1
394 197 0.307151 0.428203 -0.069956 1
396 197 0.294439 0.439373 -0.077376 1
398 197 0.283646 0.450528 -0.082519 1
400 197 0.276239 0.460411 -0.088869 1
402 197 0.269309 0.464102 -0.089838 1
404 197 0.288734 0.449731 -0.019109 1
406 197 0.000000 0.000000 0.000000 0
408 197 0.000000 0.000000 0.000000 0
410 197 0.000000 0.000000 0.000000 0
412 197 0.000000 0.000000 0.000000 0
414 197 0.000000 0.000000 0.000000 0
416 197 0.000000 0.000000 0.000000 0
418 197 0.000000 0.000000 0.000000 0
420 197 0.000000 0.000000 0.000000 0
422 197 0.000000 0.000000 0.000000 0
424 197 0.000000 0.000000 0.000000 0
426 197 0.000000 0.000000 0.000000 0
428 197 0.000000 0.000000 0.000000 0
430 197 0.000000 0.000000 0.000000 0
432 197 0.000000 0.000000 0.000000 0
434 197 0.000000 0.000000 0.000000 0
436 197 0.000000 0.000000 0.000000 0
438 197 0.000000 0.000000 0.000000 0
440 197 0.000000 0.000000 0.000000 0
442 197 0.000000 0.000000 0.000000 0
444 197 0.000000 0.000000 0.000000 0
446 197 0.000000 0.000000 0.000000 0
308 199 0.000000 0.000000 0.000000 0
310 199 0.000000 0.000000 0.000000 0
312 199 0.000000 0.000000 0.000000 0
314 199 0.000000 0.000000 0.000000 0
316 199 -0.185342 -0.086693 -0.073495 1
318 199 -0.167202 -0.130848 -0.080188 1
320 199 -0.138435 -0.204760 -0.115279 1
322 199 -0.107129 -0.266429 -0.123369 1
324 199 -0.075994 -0.318822 -0.104998 1
326 199 -0.036476 -0.358439 -0.104480 1
328 199 0.004986 -0.384799 -0.133826 1
330 199 0.045552 -0.398617 -0.162843 1
332 199 0.097867 -0.406019 -0.184569 1
334 199 0.163621 -0.409133 -0.198114 1
336 199 0.233131 -0.405929 -0.194589 1
338 199 0.304313 -0.396577 -0.175364 1
340 199 0.366029 -0.383302 -0.157098 1
342 199 0.412281 -0.360181 -0.145093 1
344 199 0.445355 -0.327914 -0.140731 1
346 199 0.472891 -0.291321 -0.142672 1
348 199 0.501745 -0.250806 -0.157286 1
350 199 0.527983 -0.211030 -0.181592 1
352 199 0.548424 -0.168472 -0.197036 1
354 199 0.567970 -0.123886 -0.195830 1
356 199 0.586945 -0.079029 -0.179775 1
358 199 0.602089 -0.036169 -0.152840 1
360 199 0.612718 0.002530 -0.127942 1
362 199 0.612412 0.041826 -0.120797 1
364 199 0.604530 0.084941 -0.127506 1
366 199 0.594955 0.132371 -0.133960 1
368 199 0.587763 0.182536 -0.133302 1
370 199 0.584066 0.232183 -0.124153 1
372 199 0.576354 0.273141 -0.110619 1
374 199 0.561887 0.305894 -0.098073 1
376 199 0.537183 0.331371 -0.089045 1
378 199 0.505485 0.349417 -0.082217 1
380 199 0.472514 0.365943 -0.079567 1
382 199 0.443054 0.382663 -0.078291 1
384 199 0.417005 0.400266 -0.075132 1
386 199 0.394426 0.417500 -0.066788 1
388 199 0.373872 0.429755 -0.054914 1
390 199 0.353928 0.438992 -0.043839 1
392 199 0.339168 0.446890 -0.038445 1
394 199 0.328867 0.452693 -0.035949 1
396 199 0.319395 0.458749 -0.031690 1
398 199 0.313422 0.465836 -0.027194 1
400 199 0.312673 0.472736 -0.028203 1
402 199 0.312886 0.478767 -0.034866 1
404 199 0.313835 0.472415 -0.028559 1
406 199 0.322421 0.452124 0.007678 1
408 199 0.000000 0.000000 0.000000 0
410 199 0.000000 0.000000 0.000000 0
412 199 0.000000 0.000000 0.000000 0
414 199 0.000000 0.000000 0.000000 0
416 199 0.000000 0.000000 0.000000 0
418 199 0.000000 0.000000 0.000000 0
420 199 0.000000 0.000000 0.000000 0
422 199 0.000000 0.000000 0.000000 0
424 199 0.000000 0.000000 0.000000 0
426 199 0.000000 0.000000 0.000000 0
428 199 0.000000 0.000000 0.000000 0
430 199 0.000000 0.000000 0.000000 0
432 199 0.000000 0.000000 0.000000 0
434 199 0.000000 0.000000 0.000000 0
436 199 0.000000 0.000000 0.000000 0
438 199 0.000000 0.000000 0.000000 0
440 199 0.000000 0.000000 0.000000 0
442 199 0.000000 0.000000 0.000000 0
444 199 0.000000 0.000000 0.000000 0
446 199 0.000000 0.000000 0.000000 0
308 201 0.000000 0.000000 0.000000 0
310 201 0.000000 0.000000 0.000000 0
312 201 0.000000 0.000000 0.000000 0
314 201 0.000000 0.000000 0.000000 0
316 201 -0.200491 -0.105657 0.007866 1
318 201 -0.176613 -0.167405 -0.024303 1
320 201 -0.138309 -0.247687 -0.097040 1
322 201 -0.100519 -0.313066 -0.135438 1
324 201 -0.066011 -0.370113 -0.123783 1
326 201 -0.021544 -0.420272 -0.120994 1
328 201 0.023303 -0.456608 -0.147378 1
330 201 0.062956 -0.476951 -0.176313 1
332 201 0.112951 -0.487200 -0.201134 1
334 201 0.177312 -0.491367 -0.218031 1
336 201 0.248513 -0.487048 -0.218025 1
338 201 0.322131 -0.474077 -0.202562 1
340 201 0.388357 -0.454142 -0.190477 1
342 201 0.441210 -0.424723 -0.185243 1
344 201 0.483811 -0.386581 -0.186630 1
346 201 0.523044 -0.344910 -0.188084 1
348 201 0.561006 -0.298432 -0.193001 1
350 201 0.591937 -0.250243 -0.202180 1
352 201 0.611983 -0.199127 -0.207307 1
354 201 0.629062 -0.145202 -0.203852 1
356 201 0.645589 -0.093165 -0.191857 1
358 201 0.658638 -0.043813 -0.171398 1
360 201 0.668705 0.000616 -0.149076 1
362 201 0.669178 0.044490 -0.137776 1
364 201 0.661997 0.092136 -0.135812 1
366 201 0.652331 0.142931 -0.134969 1
368 201 0.644018 0.196183 -0.128031 1
370 201 0.637860 0.248748 -0.116648 1
372 201 0.624936 0.293314 -0.106723 1
374 201 0.602842 0.330461 -0.102672 1
376 201 0.570360 0.360548 -0.103251 1
378 201 0.531250 0.383265 -0.103104 1
380 201 0.494619 0.402796 -0.099127 1
382 201 0.464356 0.421311 -0.088491 1
384 201 0.439025 0.439921 -0.075590 1
386 201 0.416395 0.457547 -0.062284 1
388 201 0.394614 0.469217 -0.049075 1
390 201 0.373472 0.475999 -0.035545 1
392 201 0.358441 0.478771 -0.022986 1
394 201 0.349249 0.479024 -0.011550 1
396 201 0.342531 0.478742 0.001360 1
398 201 0.340335 0.480122 0.011528 1
400 201 0.343696 0.481559 0.012213 1
402 201 0.349521 0.485176 0.000549 1
404 201 0.356936 0.482888 -0.010342 1
406 201 0.363692 0.472506 -0.014844 1
408 201 0.389130 0.464860 -0.012197 1
410 201 0.000000 0.000000 0.000000 0
412 201 0.000000 0.000000 0.000000 0
414 201 0.000000 0.000000 0.000000 0
416 201 0.000000 0.000000 0.000000 0
418 201 0.000000 0.000000 0.000000 0
420 201 0.000000 0.000000 0.000000 0
422 201 0.000000 0.000000 0.000000 0
424 201 0.000000 0.000000 0.000000 0
426 201 0.000000 0.000000 0.000000 0
428 201 0.000000 0.000000 0.000000 0
430 201 0.000000 0.000000 0.000000 0
432 201 0.000000 0.000000 0.000000 0
434 201 0.000000 0.000000 0.000000 0
436 201 0.000000 0.000000 0.000000 0
438 201 0.000000 0.000000 0.000000 0
440 201 0.000000 0.000000 0.000000 0
442 201 0.000000 0.000000 0.000000 0
444 201 0.000000 0.000000 0.000000 0
446 201 0.000000 0.000000 0.000000 0
308 203 0.000000 0.000000 0.000000 0
310 203 0.000000 0.000000 0.000000 0
312 203 0.000000 0.000000 0.000000 0
314 203 0.000000 0.000000 0.000000 0
316 203 -0.167200 -0.123277 0.098903 1
318 203 -0.126173 -0.205742 0.073760 1
320 203 -0.073310 -0.294079 -0.037379 1
322 203 -0.021794 -0.361794 -0.120766 1
324 203 0.019653 -0.423061 -0.122863 1
326 203 0.067672 -0.478434 -0.117573 1
328 203 0.114591 -0.519947 -0.137120 1
330 203 0.150825 -0.541798 -0.162615 1
332 203 0.192940 -0.553048 -0.186360 1
334 203 0.247423 -0.558768 -0.206768 1
336 203 0.308659 -0.555834 -0.214116 1
338 203 0.372293 -0.541503 -0.208414 1
340 203 0.431509 -0.517541 -0.205799 1
342 203 0.480035 -0.481482 -0.212062 1
344 203 0.522029 -0.438169 -0.220427 1
346 203 0.564068 -0.391749 -0.222210 1
348 203 0.606879 -0.340409 -0.216439 1
350 203 0.643060 -0.286451 -0.210425 1
352 203 0.667011 -0.227523 -0.203695 1
354 203 0.685112 -0.166658 -0.199224 1
356 203 0.700350 -0.107113 -0.193284 1
358 203 0.710988 -0.051402 -0.180750 1
360 203 0.719520 -0.000318 -0.164833 1
362 203 0.720251 0.049360 -0.152997 1
364 203 0.713548 0.101363 -0.145947 1
366 203 0.703485 0.155397 -0.138416 1
368 203 0.693623 0.210362 -0.126852 1
370 203 0.684088 0.265362 -0.113246 1
372 203 0.666785 0.313544 -0.105323 1
374 203 0.639265 0.355797 -0.106847 1
376 203 0.600725 0.391885 -0.114771 1
378 203 0.556338 0.419528 -0.119295 1
380 203 0.515410 0.442743 -0.114033 1
382 203 0.483705 0.461895 -0.096372 1
384 203 0.458161 0.479413 -0.073196 1
386 203 0.434745 0.495337 -0.053528 1
388 203 0.411291 0.505216 -0.037137 1
390 203 0.388102 0.509446 -0.020861 1
392 203 0.371560 0.508901 -0.005038 1
394 203 0.361843 0.503754 0.010960 1
396 203 0.356303 0.498011 0.025381 1
398 203 0.356908 0.492200 0.035356 1
400 203 0.363705 0.485208 0.037050 1
402 203 0.374681 0.478798 0.029541 1
404 203 0.390881 0.469717 0.017126 1
406 203 0.407308 0.457623 0.006734 1
408 203 0.413087 0.448596 0.008582 1
410 203 0.000000 0.000000 0.000000 0
412 203 0.000000 0.000000 0.000000 0
414 203 0.000000 0.000000 0.000000 0
416 203 0.000000 0.000000 0.000000 0
418 203 0.000000 0.000000 0.000000 0
420 203 0.000000 0.000000 0.000000 0
422 203 0.000000 0.000000 0.000000 0
424 203 0.000000 0.000000 0.000000 0
426 203 0.000000 0.000000 0.000000 0
428 203 0.000000 0.000000 0.000000 0
430 203 0.000000 0.000000 0.000000 0
432 203 0.000000 0.000000 0.000000 0
434 203 0.000000 0.000000 0.000000 0
436 203 0.000000 0.000000 0.000000 0
438 203 0.000000 0.000000 0.000000 0
440 203 0.000000 0.000000 0.000000 0
442 203 0.000000 0.000000 0.000000 0
444 203 0.000000 0.000000 0.000000 0
446 203 0.000000 0.000000 0.000000 0
308 205 0.000000 0.000000 0.000000 0
310 205 0.000000 0.000000 0.000000 0
312 205 0.000000 0.000000 0.000000 0
314 205 0.000000 0.000000 0.000000 0
316 205 -0.004646 -0.148561 0.156981 1
318 205 0.021222 -0.240696 0.175001 1
320 205 0.094334 -0.342436 0.050767 1
322 205 0.164519 -0.415688 -0.068572 1
324 205 0.212529 -0.482111 -0.085203 1
326 205 0.258209 -0.537545 -0.082766 1
328 205 0.300916 -0.574815 -0.102248 1
330 205 0.329779 -0.591719 -0.126517 1
332 205 0.362879 -0.600535 -0.150546 1
334 205 0.402411 -0.605743 -0.177520 1
336 205 0.444606 -0.604028 -0.195287 1
338 205 0.487780 -0.590860 -0.199752 1
340 205 0.526879 -0.566812 -0.205714 1
342 205 0.560848 -0.529204 -0.218723 1
344 205 0.589310 -0.483553 -0.233122 1
346 205 0.623211 -0.434814 -0.237100 1
348 205 0.661325 -0.380930 -0.227623 1
350 205 0.698784 -0.323664 -0.212324 1
352 205 0.726352 -0.260438 -0.197732 1
354 205 0.746484 -0.192899 -0.191964 1
356 205 0.760397 -0.126457 -0.190535 1
358 205 0.766996 -0.061691 -0.186776 1
360 205 0.772673 -0.002558 -0.177948 1
362 205 0.772338 0.055044 -0.168250 1
364 205 0.765374 0.113004 -0.158577 1
366 205 0.754273 0.170543 -0.147365 1
368 205 0.741329 0.227892 -0.132035 1
370 205 0.727641 0.285303 -0.116106 1
372 205 0.705881 0.338199 -0.105536 1
374 205 0.675609 0.386019 -0.105028 1
376 205 0.635095 0.428046 -0.110407 1
378 205 0.587863 0.460182 -0.113131 1
380 205 0.543159 0.485617 -0.106405 1
382 205 0.506305 0.504300 -0.087263 1
384 205 0.476988 0.519628 -0.061597 1
386 205 0.449919 0.532018 -0.039235 1
388 205 0.423827 0.538707 -0.019712 1
390 205 0.397798 0.539770 -0.000652 1
392 205 0.378189 0.535308 0.016836 1
394 205 0.366010 0.525703 0.032556 1
396 205 0.359441 0.513619 0.044144 1
398 205 0.361442 0.501109 0.051899 1
400 205 0.372723 0.483636 0.057831 1
402 205 0.391760 0.463787 0.062087 1
404 205 0.419156 0.440296 0.064993 1
406 205 0.446801 0.415610 0.068688 1
408 205 0.456447 0.406712 0.071930 1
410 205 0.000000 0.000000 0.000000 0
412 205 0.000000 0.000000 0.000000 0
414 205 0.000000 0.000000 0.000000 0
416 205 0.000000 0.000000 0.000000 0
418 205 0.000000 0.000000 0.000000 0
420 205 0.000000 0.000000 0.000000 0
422 205 0.000000 0.000000 0.000000 0
424 205 0.000000 0.000000 0.000000 0
426 205 0.000000 0.000000 0.000000 0
428 205 0.000000 0.000000 0.000000 0
430 205 0.000000 0.000000 0.000000 0
432 205 0.000000 0.000000 0.000000 0
434 205 0.000000 0.000000 0.000000 0
436 205 0.000000 0.000000 0.000000 0
438 205 0.000000 0.000000 0.000000 0
440 205 0.000000 0.000000 0.000000 0
442 205 0.000000 0.000000 0.000000 0
444 205 0.000000 0.000000 0.000000 0
446 205 0.000000 0.000000 0.000000 0
308 207 0.000000 0.000000 0.000000 0
310 207 0.000000 0.000000 0.000000 0
312 207 0.000000 0.000000 0.000000 0
314 207 0.000000 0.000000 0.000000 0
316 207 0.205979 -0.158561 0.181533 1
318 207 0.237684 -0.273146 0.241592 1
320 207 0.330500 -0.387564 0.141430 1
322 207 0.420565 -0.469337 0.016705 1
324 207 0.473570 -0.540433 -0.007882 1
326 207 0.514709 -0.593234 -0.012490 1
328 207 0.549963 -0.621907 -0.038181 1
330 207 0.572867 -0.632946 -0.066690 1
332 207 0.597772 -0.637048 -0.098358 1
334 207 0.624479 -0.639602 -0.138014 1
336 207 0.644077 -0.636707 -0.172739 1
338 207 0.660343 -0.624377 -0.190907 1
340 207 0.674398 -0.602360 -0.203002 1
342 207 0.685469 -0.566617 -0.218505 1
344 207 0.697452 -0.521676 -0.234885 1
346 207 0.715621 -0.472773 -0.242509 1
348 207 0.743782 -0.418548 -0.235306 1
350 207 0.775297 -0.360822 -0.218286 1
352 207 0.801608 -0.296158 -0.198513 1
354 207 0.821031 -0.224790 -0.189658 1
356 207 0.832405 -0.150546 -0.190380 1
358 207 0.835027 -0.076899 -0.192004 1
360 207 0.836512 -0.006941 -0.189463 1
362 207 0.834495 0.059631 -0.181010 1
364 207 0.826764 0.125257 -0.169474 1
366 207 0.814246 0.187945 -0.155839 1
368 207 0.798367 0.248746 -0.138703 1
370 207 0.779377 0.309953 -0.120092 1
372 207 0.753823 0.367405 -0.104598 1
374 207 0.721799 0.421391 -0.095396 1
376 207 0.681315 0.468427 -0.091016 1
378 207 0.633051 0.503745 -0.085347 1
380 207 0.583688 0.530316 -0.075481 1
382 207 0.539484 0.548038 -0.059041 1
384 207 0.501069 0.560473 -0.039411 1
386 207 0.468309 0.569402 -0.021389 1
388 207 0.438372 0.571853 -0.003020 1
390 207 0.409792 0.569033 0.017907 1
392 207 0.387852 0.560170 0.038261 1
394 207 0.373453 0.545314 0.055751 1
396 207 0.366013 0.528270 0.067983 1
398 207 0.369077 0.508775 0.076943 1
400 207 0.384070 0.482678 0.089732 1
402 207 0.410916 0.449143 0.109585 1
404 207 0.448576 0.410488 0.131852 1
406 207 0.484743 0.374146 0.149964 1
408 207 0.498804 0.363063 0.156871 1
410 207 0.000000 0.000000 0.000000 0
412 207 0.000000 0.000000 0.000000 0
414 207 0.000000 0.000000 0.000000 0
416 207 0.000000 0.000000 0.000000 0
418 207 0.000000 0.000000 0.000000 0
420 207 0.000000 0.000000 0.000000 0
422 207 0.000000 0.000000 0.000000 0
424 207 0.000000 0.000000 0.000000 0
426 207 0.000000 0.000000 0.000000 0
428 207 0.000000 0.000000 0.000000 0
430 207 0.000000 0.000000 0.000000 0
432 207 0.000000 0.000000 0.000000 0
434 207 0.000000 0.000000 0.000000 0
436 207 0.000000 0.000000 0.000000 0
438 207 0.000000 0.000000 0.000000 0
440 207 0.000000 0.000000 0.000000 0
442 207 0.000000 0.000000 0.000000 0
444 207 0.000000 0.000000 0.000000 0
446 207 0.000000 0.000000 0.000000 0
308 209 0.000000 0.000000 0.000000 0
310 209 0.000000 0.000000 0.000000 0
312 209 0.000000 0.000000 0.000000 0
314 209 0.000000 0.000000 0.000000 0
316 209 0.508929 -0.183206 0.174064 1
318 209 0.552368 -0.308711 0.265728 1
320 209 0.656343 -0.433916 0.213471 1
322 209 0.750958 -0.519510 0.112710 1
324 209 0.802018 -0.589450 0.092028 1
326 209 0.838104 -0.635742 0.081213 1
328 209 0.868073 -0.657138 0.049387 1
330 209 0.886627 -0.663212 0.011106 1
332 209 0.906762 -0.662609 -0.034308 1
334 209 0.921695 -0.658928 -0.093040 1
336 209 0.921778 -0.651798 -0.145400 1
338 209 0.909706 -0.637194 -0.179514 1
340 209 0.896469 -0.615831 -0.197674 1
342 209 0.884395 -0.581895 -0.213225 1
344 209 0.874932 -0.538310 -0.230370 1
346 209 0.876310 -0.490178 -0.242216 1
348 209 0.886174 -0.437417 -0.243157 1
350 209 0.902559 -0.382141 -0.229335 1
352 209 0.914250 -0.320739 -0.206335 1
354 209 0.922288 -0.250111 -0.191413 1
356 209 0.925373 -0.172521 -0.189261 1
358 209 0.920627 -0.090825 -0.191957 1
360 209 0.917645 -0.012152 -0.190586 1
362 209 0.913148 0.064312 -0.180454 1
364 209 0.903840 0.137558 -0.167777 1
366 209 0.888816 0.206890 -0.154985 1
368 209 0.868971 0.273487 -0.138938 1
370 209 0.845320 0.339692 -0.119171 1
372 209 0.815981 0.402934 -0.097286 1
374 209 0.783003 0.461715 -0.078637 1
376 209 0.742986 0.512732 -0.061187 1
378 209 0.694007 0.549715 -0.045267 1
380 209 0.640360 0.576494 -0.030089 1
382 209 0.587939 0.592495 -0.015221 1
384 209 0.541068 0.602111 -0.001566 1
386 209 0.501824 0.606647 0.009306 1
388 209 0.469310 0.604874 0.024529 1
390 209 0.439773 0.597142 0.047576 1
392 209 0.417941 0.583317 0.073923 1
394 209 0.404201 0.563501 0.097717 1
396 209 0.398218 0.541858 0.115151 1
398 209 0.403133 0.517999 0.128720 1
400 209 0.421252 0.484448 0.151091 1
402 209 0.451620 0.441529 0.183235 1
404 209 0.493093 0.391534 0.218892 1
406 209 0.531923 0.347762 0.243051 1
408 209 0.547927 0.334877 0.249708 1
410 209 0.000000 0.000000 0.000000 0
412 209 0.000000 0.000000 0.000000 0
414 209 0.000000 0.000000 0.000000 0
416 209 0.000000 0.000000 0.000000 0
418 209 0.000000 0.000000 0.000000 0
420 209 0.000000 0.000000 0.000000 0
422 209 0.000000 0.000000 0.000000 0
424 209 0.000000 0.000000 0.000000 0
426 209 0.000000 0.000000 0.000000 0
428 209 0.000000 0.000000 0.000000 0
430 209 0.000000 0.000000 0.000000 0
432 209 0.000000 0.000000 0.000000 0
434 209 0.000000 0.000000 0.000000 0
436 209 0.000000 0.000000 0.000000 0
438 209 0.000000 0.000000 0.000000 0
440 209 0.000000 0.000000 0.000000 0
442 209 0.000000 0.000000 0.000000 0
444 209 0.000000 0.000000 0.000000 0
446 209 0.000000 0.000000 0.000000 0
308 211 0.000000 0.000000 0.000000 0
310 211 0.000000 0.000000 0.000000 0
312 211 0.000000 0.000000 0.000000 0
314 211 0.000000 0.000000 0.000000 0
316 211 0.864617 -0.235589 0.182099 1
318 211 0.918815 -0.361236 0.276710 1
320 211 1.015548 -0.485976 0.254202 1
322 211 1.096979 -0.569361 0.187217 1
324 211 1.142116 -0.633846 0.170490 1
326 211 1.177092 -0.672901 0.157263 1
328 211 1.206698 -0.689247 0.125145 1
330 211 1.225378 -0.691549 0.082746 1
332 211 1.243150 -0.684602 0.027081 1
334 211 1.252465 -0.673251 -0.037477 1
336 211 1.238844 -0.657446 -0.099222 1
338 211 1.207156 -0.637060 -0.148111 1
340 211 1.170463 -0.611863 -0.182628 1
342 211 1.136737 -0.576785 -0.207192 1
344 211 1.108516 -0.532849 -0.229178 1
346 211 1.089808 -0.485292 -0.246071 1
348 211 1.080888 -0.434374 -0.254284 1
350 211 1.071862 -0.383325 -0.247871 1
352 211 1.059621 -0.327656 -0.224759 1
354 211 1.044057 -0.263104 -0.203430 1
356 211 1.029815 -0.187731 -0.194031 1
358 211 1.013532 -0.103954 -0.192087 1
360 211 1.003506 -0.018570 -0.187151 1
362 211 0.996811 0.065319 -0.173967 1
364 211 0.985869 0.147434 -0.161000 1
366 211 0.968275 0.224446 -0.151044 1
368 211 0.944546 0.298959 -0.138061 1
370 211 0.916209 0.372195 -0.118744 1
372 211 0.883626 0.440698 -0.093698 1
374 211 0.849012 0.504059 -0.067511 1
376 211 0.809089 0.557754 -0.041756 1
378 211 0.760744 0.596607 -0.016198 1
380 211 0.705933 0.623982 0.006010 1
382 211 0.650969 0.638604 0.026534 1
384 211 0.600120 0.644933 0.042611 1
386 211 0.559573 0.645121 0.055356 1
388 211 0.527050 0.637700 0.071487 1
390 211 0.498692 0.625364 0.097478 1
392 211 0.478393 0.606300 0.130780 1
394 211 0.465855 0.581703 0.162108 1
396 211 0.461158 0.555984 0.185862 1
398 211 0.468415 0.528404 0.205575 1
400 211 0.488838 0.491258 0.234064 1
402 211 0.520223 0.442375 0.273481 1
404 211 0.560192 0.386490 0.312934 1
406 211 0.597380 0.337532 0.336016 1
408 211 0.617541 0.322779 0.339665 1
410 211 0.000000 0.000000 0.000000 0
412 211 0.000000 0.000000 0.000000 0
414 211 0.000000 0.000000 0.000000 0
416 211 0.000000 0.000000 0.000000 0
418 211 0.000000 0.000000 0.000000 0
420 211 0.000000 0.000000 0.000000 0
422 211 0.000000 0.000000 0.000000 0
424 211 0.000000 0.000000 0.000000 0
426 211 0.000000 0.000000 0.000000 0
428 211 0.000000 0.000000 0.000000 0
430 211 0.000000 0.000000 0.000000 0
432 211 0.000000 0.000000 0.000000 0
434 211 0.000000 0.000000 0.000000 0
436 211 0.000000 0.000000 0.000000 0
438 211 0.000000 0.000000 0.000000 0
440 211 0.000000 0.000000 0.000000 0
442 211 0.000000 0.000000 0.000000 0
444 211 0.000000 0.000000 0.000000 0
446 211 0.000000 0.000000 0.000000 0
308 213 0.000000 0.000000 0.000000 0
310 213 0.000000 0.000000 0.000000 0
312 213 0.000000 0.000000 0.000000 0
314 213 0.000000 0.000000 0.000000 0
316 213 1.237309 -0.303281 0.204827 1
318 213 1.290058 -0.419373 0.280896 1
320 213 1.366779 -0.534770 0.270879 1
322 213 1.427748 -0.612231 0.219607 1
324 213 1.467700 -0.668343 0.198610 1
326 213 1.507964 -0.701821 0.184226 1
328 213 1.544190 -0.714944 0.158964 1
330 213 1.567174 -0.713617 0.122296 1
332 213 1.585118 -0.699879 0.073969 1
334 213 1.590398 -0.678011 0.028460 1
336 213 1.571629 -0.651948 -0.018896 1
338 213 1.529788 -0.620129 -0.071287 1
340 213 1.481278 -0.587152 -0.127671 1
342 213 1.433698 -0.546725 -0.179568 1
344 213 1.391342 -0.500953 -0.217524 1
346 213 1.357352 -0.453849 -0.241531 1
348 213 1.327477 -0.405780 -0.256839 1
350 213 1.294883 -0.358716 -0.258799 1
352 213 1.249941 -0.310326 -0.244261 1
354 213 1.204370 -0.254104 -0.224593 1