TITLE = "B00013"
VARIABLES = "X", "Y", "Vx", "Vy", "Vz", "flag"
ZONE T="B00013", I=70, J=78
308 191 0.000000 0.000000 0.000000 0
310 191 0.000000 0.000000 0.000000 0
312 191 0.000000 0.000000 0.000000 0
314 191 0.000000 0.000000 0.000000 0
316 191 0.000000 0.000000 0.000000 0
318 191 0.000000 0.000000 0.000000 0
320 191 0.000000 0.000000 0.000000 0
322 191 0.000000 0.000000 0.000000 0
324 191 0.000000 0.000000 0.000000 0
326 191 0.000000 0.000000 0.000000 0
328 191 0.000000 0.000000 0.000000 0
330 191 0.000000 0.000000 0.000000 0
332 191 0.000000 0.000000 0.000000 0
334 191 0.000000 0.000000 0.000000 0
336 191 0.000000 0.000000 0.000000 0
338 191 0.000000 0.000000 0.000000 0
340 191 0.000000 0.000000 0.000000 0
342 191 0.000000 0.000000 0.000000 0
344 191 0.000000 0.000000 0.000000 0
346 191 0.000000 0.000000 0.000000 0
348 191 0.000000 0.000000 0.000000 0
350 191 0.000000 0.000000 0.000000 0
352 191 0.000000 0.000000 0.000000 0
354 191 0.000000 0.000000 0.000000 0
356 191 0.000000 0.000000 0.000000 0
358 191 0.000000 0.000000 0.000000 0
360 191 0.000000 0.000000 0.000000 0
362 191 0.000000 0.000000 0.000000 0
364 191 0.000000 0.000000 0.000000 0
366 191 0.000000 0.000000 0.000000 0
368 191 0.000000 0.000000 0.000000 0
370 191 0.000000 0.000000 0.000000 0
372 191 0.000000 0.000000 0.000000 0
374 191 0.000000 0.000000 0.000000 0
376 191 0.000000 0.000000 0.000000 0
378 191 0.000000 0.000000 0.000000 0
380 191 0.000000 0.000000 0.000000 0
382 191 0.000000 0.000000 0.000000 0
384 191 0.000000 0.000000 0.000000 0
386 191 0.000000 0.000000 0.000000 0
388 191 0.000000 0.000000 0.000000 0
390 191 0.000000 0.000000 0.000000 0
392 191 0.000000 0.000000 0.000000 0
394 191 0.000000 0.000000 0.000000 0
396 191 0.000000 0.000000 0.000000 0
398 191 0.000000 0.000000 0.000000 0
400 191 0.000000 0.000000 0.000000 0
402 191 0.000000 0.000000 0.000000 0
404 191 0.000000 0.000000 0.000000 0
406 191 0.000000 0.000000 0.000000 0
408 191 0.000000 0.000000 0.000000 0
410 191 0.000000 0.000000 0.000000 0
412 191 0.000000 0.000000 0.000000 0
414 191 0.000000 0.000000 0.000000 0
416 191 0.000000 0.000000 0.000000 0
418 191 0.000000 0.000000 0.000000 0
420 191 0.000000 0.000000 0.000000 0
422 191 0.000000 0.000000 0.000000 0
424 191 0.000000 0.000000 0.000000 0
426 191 0.000000 0.000000 0.000000 0
428 191 0.000000 0.000000 0.000000 0
430 191 0.000000 0.000000 0.000000 0
432 191 0.000000 0.000000 0.000000 0
434 191 0.000000 0.000000 0.000000 0
436 191 0.000000 0.000000 0.000000 0
438 191 0.000000 0.000000 0.000000 0
440 191 0.000000 0.000000 0.000000 0
442 191 0.000000 0.000000 0.000000 0
444 191 0.000000 0.000000 0.000000 0
446 191 0.000000 0.000000 0.000000 0
308 193 0.000000 0.000000 0.000000 0
310 193 0.000000 0.000000 0.000000 0
312 193 0.000000 0.000000 0.000000 0
314 193 0.000000 0.000000 0.000000 0
316 193 0.000000 0.000000 0.000000 0
318 193 0.000000 0.000000 0.000000 0
320 193 0.000000 0.000000 0.000000 0
322 193 0.000000 0.000000 0.000000 0
324 193 0.000000 0.000000 0.000000 0
326 193 0.000000 0.000000 0.000000 0
328 193 0.000000 0.000000 0.000000 0
330 193 0.000000 0.000000 0.000000 0
332 193 0.000000 0.000000 0.000000 0
334 193 0.000000 0.000000 0.000000 0
336 193 0.000000 0.000000 0.000000 0
338 193 0.000000 0.000000 0.000000 0
340 193 0.000000 0.000000 0.000000 0
342 193 0.000000 0.000000 0.000000 0
344 193 0.000000 0.000000 0.000000 0
346 193 0.000000 0.000000 0.000000 0
348 193 0.000000 0.000000 0.000000 0
350 193 0.000000 0.000000 0.000000 0
352 193 0.000000 0.000000 0.000000 0
354 193 0.000000 0.000000 0.000000 0
356 193 0.000000 0.000000 0.000000 0
358 193 0.000000 0.000000 0.000000 0
360 193 0.000000 0.000000 0.000000 0
362 193 0.000000 0.000000 0.000000 0
364 193 0.000000 0.000000 0.000000 0
366 193 0.000000 0.000000 0.000000 0
368 193 0.000000 0.000000 0.000000 0
370 193 0.000000 0.000000 0.000000 0
372 193 0.000000 0.000000 0.000000 0
374 193 0.000000 0.000000 0.000000 0
376 193 0.000000 0.000000 0.000000 0
378 193 0.000000 0.000000 0.000000 0
380 193 0.000000 0.000000 0.000000 0
382 193 0.000000 0.000000 0.000000 0
384 193 0.000000 0.000000 0.000000 0
386 193 0.000000 0.000000 0.000000 0
388 193 0.000000 0.000000 0.000000 0
390 193 0.000000 0.000000 0.000000 0
392 193 0.000000 0.000000 0.000000 0
394 193 0.000000 0.000000 0.000000 0
396 193 0.000000 0.000000 0.000000 0
398 193 0.000000 0.000000 0.000000 0
400 193 0.000000 0.000000 0.000000 0
402 193 0.000000 0.000000 0.000000 0
404 193 0.000000 0.000000 0.000000 0
406 193 0.000000 0.000000 0.000000 0
408 193 0.000000 0.000000 0.000000 0
410 193 0.000000 0.000000 0.000000 0
412 193 0.000000 0.000000 0.000000 0
414 193 0.000000 0.000000 0.000000 0
416 193 0.000000 0.000000 0.000000 0
418 193 0.000000 0.000000 0.000000 0
420 193 0.000000 0.000000 0.000000 0
422 193 0.000000 0.000000 0.000000 0
424 193 0.000000 0.000000 0.000000 0
426 193 0.000000 0.000000 0.000000 0
428 193 0.000000 0.000000 0.000000 0
430 193 0.000000 0.000000 0.000000 0
432 193 0.000000 0.000000 0.000000 0
434 193 0.000000 0.000000 0.000000 0
436 193 0.000000 0.000000 0.000000 0
438 193 0.000000 0.000000 0.000000 0
440 193 0.000000 0.000000 0.000000 0
442 193 0.000000 0.000000 0.000000 0
444 193 0.000000 0.000000 0.000000 0
446 193 0.000000 0.000000 0.000000 0
308 195 0.000000 0.000000 0.000000 0
310 195 0.000000 0.000000 0.000000 0
312 195 0.000000 0.000000 0.000000 0
314 195 0.000000 0.000000 0.000000 0
316 195 0.000000 0.000000 0.000000 0
318 195 0.000000 0.000000 0.000000 0
320 195 0.000000 0.000000 0.000000 0
322 195 0.000000 0.000000 0.000000 0
324 195 0.000000 0.000000 0.000000 0
326 195 0.000000 0.000000 0.000000 0
328 195 0.000000 0.000000 0.000000 0
330 195 0.000000 0.000000 0.000000 0
332 195 0.000000 0.000000 0.000000 0
334 195 0.000000 0.000000 0.000000 0
336 195 0.000000 0.000000 0.000000 0
338 195 0.000000 0.000000 0.000000 0
340 195 0.000000 0.000000 0.000000 0
342 195 0.000000 0.000000 0.000000 0
344 195 0.000000 0.000000 0.000000 0
346 195 0.000000 0.000000 0.000000 0
348 195 0.000000 0.000000 0.000000 0
350 195 0.000000 0.000000 0.000000 0
352 195 0.000000 0.000000 0.000000 0
354 195 0.000000 0.000000 0.000000 0
356 195 0.000000 0.000000 0.000000 0
358 195 0.000000 0.000000 0.000000 0
360 195 0.000000 0.000000 0.000000 0
362 195 0.000000 0.000000 0.000000 0
364 195 0.000000 0.000000 0.000000 0
366 195 0.000000 0.000000 0.000000 0
368 195 0.000000 0.000000 0.000000 0
370 195 0.000000 0.000000 0.000000 0
372 195 0.000000 0.000000 0.000000 0
374 195 0.000000 0.000000 0.000000 0
376 195 0.000000 0.000000 0.000000 0
378 195 0.000000 0.000000 0.000000 0
380 195 0.000000 0.000000 0.000000 0
382 195 0.000000 0.000000 0.000000 0
384 195 0.000000 0.000000 0.000000 0
386 195 0.000000 0.000000 0.000000 0
388 195 0.000000 0.000000 0.000000 0
390 195 0.000000 0.000000 0.000000 0
392 195 0.000000 0.000000 0.000000 0
394 195 0.000000 0.000000 0.000000 0
396 195 0.000000 0.000000 0.000000 0
398 195 0.000000 0.000000 0.000000 0
400 195 0.000000 0.000000 0.000000 0
402 195 0.000000 0.000000 0.000000 0
404 195 0.000000 0.000000 0.000000 0
406 195 0.000000 0.000000 0.000000 0
408 195 0.000000 0.000000 0.000000 0
410 195 0.000000 0.000000 0.000000 0
412 195 0.000000 0.000000 0.000000 0
414 195 0.000000 0.000000 0.000000 0
416 195 0.000000 0.000000 0.000000 0
418 195 0.000000 0.000000 0.000000 0
420 195 0.000000 0.000000 0.000000 0
422 195 0.000000 0.000000 0.000000 0
424 195 0.000000 0.000000 0.000000 0
426 195 0.000000 0.000000 0.000000 0
428 195 0.000000 0.000000 0.000000 0
430 195 0.000000 0.000000 0.000000 0
432 195 0.000000 0.000000 0.000000 0
434 195 0.000000 0.000000 0.000000 0
436 195 0.000000 0.000000 0.000000 0
438 195 0.000000 0.000000 0.000000 0
440 195 0.000000 0.000000 0.000000 0
442 195 0.000000 0.000000 0.000000 0
444 195 0.000000 0.000000 0.000000 0
446 195 0.000000 0.000000 0.000000 0
308 197 0.000000 0.000000 0.000000 0
310 197 0.000000 0.000000 0.000000 0
312 197 0.000000 0.000000 0.000000 0
314 197 0.000000 0.000000 0.000000 0
316 197 0.000000 0.000000 0.000000 0
318 197 -0.225838 0.099451 -0.076836 1
320 197 -0.211121 0.050750 -0.068781 1
322 197 -0.219397 -0.012630 -0.066519 1
324 197 -0.232442 -0.073061 -0.078557 1
326 197 -0.234889 -0.132808 -0.086066 1
328 197 -0.222822 -0.194835 -0.081732 1
330 197 -0.196677 -0.250692 -0.079412 1
332 197 -0.152403 -0.295869 -0.090367 1
334 197 -0.098550 -0.333743 -0.122624 1
336 197 -0.051455 -0.362702 -0.157517 1
338 197 -0.013032 -0.385860 -0.174249 1
340 197 0.026762 -0.407622 -0.176596 1
342 197 0.073486 -0.417733 -0.180233 1
344 197 0.133867 -0.418109 -0.187974 1
346 197 0.201645 -0.412553 -0.183871 1
348 197 0.269634 -0.400759 -0.166550 1
350 197 0.331573 -0.386348 -0.151389 1
352 197 0.381700 -0.365475 -0.144437 1
354 197 0.423811 -0.338364 -0.137994 1
356 197 0.462659 -0.309354 -0.129745 1
358 197 0.498735 -0.273932 -0.126499 1
360 197 0.531014 -0.235355 -0.132380 1
362 197 0.556103 -0.193640 -0.147722 1
364 197 0.575916 -0.148428 -0.167355 1
366 197 0.592967 -0.102110 -0.184994 1
368 197 0.606333 -0.057658 -0.190163 1
370 197 0.614951 -0.018391 -0.181261 1
372 197 0.615948 0.019126 -0.162836 1
374 197 0.615951 0.057742 -0.147760 1
376 197 0.621209 0.099009 -0.144069 1
378 197 0.626872 0.143427 -0.145455 1
380 197 0.628998 0.188160 -0.142950 1
382 197 0.620601 0.228489 -0.126946 1
384 197 0.604365 0.263238 -0.103026 1
386 197 0.584471 0.293899 -0.087881 1
388 197 0.563222 0.322301 -0.085640 1
390 197 0.541841 0.351174 -0.089985 1
392 197 0.521672 0.381098 -0.096200 1
394 197 0.501110 0.413289 -0.109709 1
396 197 0.479746 0.447542 -0.122462 1
398 197 0.457752 0.479475 -0.127748 1
400 197 0.433874 0.508058 -0.119335 1
402 197 0.412551 0.532294 -0.099391 1
404 197 0.436446 0.558650 -0.070007 1
406 197 0.000000 0.000000 0.000000 0
408 197 0.000000 0.000000 0.000000 0
410 197 0.000000 0.000000 0.000000 0
412 197 0.000000 0.000000 0.000000 0
414 197 0.000000 0.000000 0.000000 0
416 197 0.000000 0.000000 0.000000 0
418 197 0.000000 0.000000 0.000000 0
420 197 0.000000 0.000000 0.000000 0
422 197 0.000000 0.000000 0.000000 0
424 197 0.000000 0.000000 0.000000 0
426 197 0.000000 0.000000 0.000000 0
428 197 0.000000 0.000000 0.000000 0
430 197 0.000000 0.000000 0.000000 0
432 197 0.000000 0.000000 0.000000 0
434 197 0.000000 0.000000 0.000000 0
436 197 0.000000 0.000000 0.000000 0
438 197 0.000000 0.000000 0.000000 0
440 197 0.000000 0.000000 0.000000 0
442 197 0.000000 0.000000 0.000000 0
444 197 0.000000 0.000000 0.000000 0
446 197 0.000000 0.000000 0.000000 0
308 199 0.000000 0.000000 0.000000 0
310 199 0.000000 0.000000 0.000000 0
312 199 0.000000 0.000000 0.000000 0
314 199 0.000000 0.000000 0.000000 0
316 199 -0.235914 0.191690 -0.093768 1
318 199 -0.251041 0.138695 -0.077380 1
320 199 -0.266783 0.065105 -0.046649 1
322 199 -0.272145 -0.009941 -0.045672 1
324 199 -0.272381 -0.084137 -0.060011 1
326 199 -0.261981 -0.155208 -0.076028 1
328 199 -0.241176 -0.229235 -0.086089 1
330 199 -0.212320 -0.297265 -0.096001 1
332 199 -0.165243 -0.356064 -0.113538 1
334 199 -0.104023 -0.409958 -0.141428 1
336 199 -0.047239 -0.451145 -0.169964 1
338 199 0.003095 -0.483200 -0.186830 1
340 199 0.050428 -0.508192 -0.200971 1
342 199 0.102398 -0.519376 -0.225306 1
344 199 0.164978 -0.519545 -0.254302 1
346 199 0.234598 -0.512914 -0.265930 1
348 199 0.305808 -0.498213 -0.253893 1
350 199 0.372109 -0.479236 -0.235798 1
352 199 0.426804 -0.450036 -0.221190 1
354 199 0.473541 -0.413324 -0.208841 1
356 199 0.518732 -0.373014 -0.195542 1
358 199 0.561434 -0.326931 -0.187808 1
360 199 0.598766 -0.279811 -0.186747 1
362 199 0.626446 -0.230784 -0.190036 1
364 199 0.646124 -0.180317 -0.198448 1
366 199 0.662038 -0.127811 -0.206680 1
368 199 0.675746 -0.076874 -0.209006 1
370 199 0.686853 -0.030107 -0.202322 1
372 199 0.690954 0.014647 -0.188338 1
374 199 0.690925 0.058963 -0.174639 1
376 199 0.691153 0.105293 -0.166210 1
378 199 0.690716 0.153311 -0.160219 1
380 199 0.686828 0.201859 -0.149881 1
382 199 0.675028 0.245748 -0.130964 1
384 199 0.656407 0.284704 -0.108428 1
386 199 0.633944 0.319860 -0.096661 1
388 199 0.611074 0.352015 -0.093282 1
390 199 0.589352 0.383848 -0.088333 1
392 199 0.569317 0.415053 -0.083808 1
394 199 0.548905 0.447574 -0.085640 1
396 199 0.528528 0.481227 -0.089836 1
398 199 0.508788 0.512336 -0.089744 1
400 199 0.487669 0.540190 -0.081773 1
402 199 0.468031 0.563522 -0.066529 1
404 199 0.449880 0.580190 -0.050368 1
406 199 0.462894 0.598290 -0.040559 1
408 199 0.000000 0.000000 0.000000 0
410 199 0.000000 0.000000 0.000000 0
412 199 0.000000 0.000000 0.000000 0
414 199 0.000000 0.000000 0.000000 0
416 199 0.000000 0.000000 0.000000 0
418 199 0.000000 0.000000 0.000000 0
420 199 0.000000 0.000000 0.000000 0
422 199 0.000000 0.000000 0.000000 0
424 199 0.000000 0.000000 0.000000 0
426 199 0.000000 0.000000 0.000000 0
428 199 0.000000 0.000000 0.000000 0
430 199 0.000000 0.000000 0.000000 0
432 199 0.000000 0.000000 0.000000 0
434 199 0.000000 0.000000 0.000000 0
436 199 0.000000 0.000000 0.000000 0
438 199 0.000000 0.000000 0.000000 0
440 199 0.000000 0.000000 0.000000 0
442 199 0.000000 0.000000 0.000000 0
444 199 0.000000 0.000000 0.000000 0
446 199 0.000000 0.000000 0.000000 0
308 201 0.000000 0.000000 0.000000 0
310 201 0.000000 0.000000 0.000000 0
312 201 0.000000 0.000000 0.000000 0
314 201 0.000000 0.000000 0.000000 0
316 201 -0.232358 0.219005 -0.020072 1
318 201 -0.262321 0.158988 -0.033034 1
320 201 -0.271765 0.073335 -0.021504 1
322 201 -0.273861 -0.013061 -0.031055 1
324 201 -0.264703 -0.097234 -0.048684 1
326 201 -0.239954 -0.179841 -0.070796 1
328 201 -0.210204 -0.263039 -0.089415 1
330 201 -0.175591 -0.341871 -0.102209 1
332 201 -0.123211 -0.412877 -0.113891 1
334 201 -0.054815 -0.478979 -0.126034 1
336 201 0.008973 -0.530813 -0.143813 1
338 201 0.061798 -0.567727 -0.166948 1
340 201 0.105834 -0.594581 -0.205184 1
342 201 0.152388 -0.606073 -0.254253 1
344 201 0.206713 -0.606158 -0.303322 1
346 201 0.269801 -0.599048 -0.326124 1
348 201 0.336576 -0.583335 -0.314775 1
350 201 0.402934 -0.561867 -0.290263 1
352 201 0.459954 -0.528389 -0.267679 1
354 201 0.511395 -0.483518 -0.248878 1
356 201 0.562481 -0.433385 -0.233942 1
358 201 0.611504 -0.376535 -0.226969 1
360 201 0.654407 -0.320399 -0.223532 1
362 201 0.685000 -0.265389 -0.219638 1
364 201 0.705463 -0.209976 -0.216214 1
366 201 0.721353 -0.153188 -0.214876 1
368 201 0.736439 -0.095811 -0.210936 1
370 201 0.750843 -0.041875 -0.204015 1
372 201 0.759032 0.011095 -0.194283 1
374 201 0.760238 0.063150 -0.184755 1
376 201 0.757327 0.115241 -0.176256 1
378 201 0.751342 0.167583 -0.165058 1
380 201 0.743413 0.218415 -0.149717 1
382 201 0.728280 0.264208 -0.129448 1
384 201 0.706616 0.305643 -0.110039 1
386 201 0.680629 0.344173 -0.102829 1
388 201 0.655935 0.380173 -0.099338 1
390 201 0.634141 0.414972 -0.089996 1
392 201 0.613809 0.448240 -0.078934 1
394 201 0.592635 0.481126 -0.074700 1
396 201 0.571686 0.513702 -0.072378 1
398 201 0.552358 0.543213 -0.067943 1
400 201 0.530802 0.569165 -0.060719 1
402 201 0.509415 0.589552 -0.050614 1
404 201 0.488575 0.602238 -0.041344 1
406 201 0.466357 0.611955 -0.039701 1
408 201 0.473157 0.622588 -0.044472 1
410 201 0.000000 0.000000 0.000000 0
412 201 0.000000 0.000000 0.000000 0
414 201 0.000000 0.000000 0.000000 0
416 201 0.000000 0.000000 0.000000 0
418 201 0.000000 0.000000 0.000000 0
420 201 0.000000 0.000000 0.000000 0
422 201 0.000000 0.000000 0.000000 0
424 201 0.000000 0.000000 0.000000 0
426 201 0.000000 0.000000 0.000000 0
428 201 0.000000 0.000000 0.000000 0
430 201 0.000000 0.000000 0.000000 0
432 201 0.000000 0.000000 0.000000 0
434 201 0.000000 0.000000 0.000000 0
436 201 0.000000 0.000000 0.000000 0
438 201 0.000000 0.000000 0.000000 0
440 201 0.000000 0.000000 0.000000 0
442 201 0.000000 0.000000 0.000000 0
444 201 0.000000 0.000000 0.000000 0
446 201 0.000000 0.000000 0.000000 0
308 203 0.000000 0.000000 0.000000 0
310 203 0.000000 0.000000 0.000000 0
312 203 0.000000 0.000000 0.000000 0
314 203 0.000000 0.000000 0.000000 0
316 203 -0.169448 0.244116 0.176510 1
318 203 -0.189600 0.166012 0.062708 1
320 203 -0.173360 0.068530 0.047306 1
322 203 -0.162242 -0.025974 0.014144 1
324 203 -0.147041 -0.118430 -0.013960 1
326 203 -0.116159 -0.209400 -0.038952 1
328 203 -0.077100 -0.302480 -0.060045 1
330 203 -0.034988 -0.389738 -0.068271 1
332 203 0.024360 -0.469673 -0.065918 1
334 203 0.096681 -0.541779 -0.062053 1
336 203 0.160938 -0.596525 -0.074628 1
338 203 0.208199 -0.632902 -0.114429 1
340 203 0.241210 -0.658145 -0.178530 1
342 203 0.270782 -0.668132 -0.255858 1
344 203 0.309604 -0.667567 -0.318667 1
346 203 0.356919 -0.660260 -0.349220 1
348 203 0.409912 -0.645092 -0.340634 1
350 203 0.466170 -0.624776 -0.314996 1
352 203 0.516427 -0.591841 -0.286794 1
354 203 0.565231 -0.545009 -0.262082 1
356 203 0.616122 -0.488328 -0.244315 1
358 203 0.665762 -0.423364 -0.239395 1
360 203 0.710132 -0.358902 -0.237658 1
362 203 0.741632 -0.297828 -0.230543 1
364 203 0.762233 -0.238228 -0.219959 1
366 203 0.777943 -0.176800 -0.209689 1
368 203 0.793462 -0.114136 -0.201213 1
370 203 0.809636 -0.052639 -0.193629 1
372 203 0.819611 0.007971 -0.187110 1
374 203 0.821193 0.068070 -0.182531 1
376 203 0.815272 0.126939 -0.177219 1
378 203 0.805599 0.183387 -0.165023 1
380 203 0.794507 0.236359 -0.146278 1
382 203 0.777031 0.283115 -0.125944 1
384 203 0.751812 0.326374 -0.110273 1
386 203 0.722170 0.367725 -0.106022 1
388 203 0.695326 0.406934 -0.101927 1
390 203 0.672970 0.444905 -0.089947 1
392 203 0.651776 0.480246 -0.076952 1
394 203 0.628642 0.513886 -0.069662 1
396 203 0.605855 0.545548 -0.064377 1
398 203 0.584874 0.572974 -0.058204 1
400 203 0.561300 0.596274 -0.053517 1
402 203 0.537489 0.613068 -0.048367 1
404 203 0.515538 0.621023 -0.044247 1
406 203 0.495121 0.626669 -0.044229 1
408 203 0.487474 0.629234 -0.046985 1
410 203 0.000000 0.000000 0.000000 0
412 203 0.000000 0.000000 0.000000 0
414 203 0.000000 0.000000 0.000000 0
416 203 0.000000 0.000000 0.000000 0
418 203 0.000000 0.000000 0.000000 0
420 203 0.000000 0.000000 0.000000 0
422 203 0.000000 0.000000 0.000000 0
424 203 0.000000 0.000000 0.000000 0
426 203 0.000000 0.000000 0.000000 0
428 203 0.000000 0.000000 0.000000 0
430 203 0.000000 0.000000 0.000000 0
432 203 0.000000 0.000000 0.000000 0
434 203 0.000000 0.000000 0.000000 0
436 203 0.000000 0.000000 0.000000 0
438 203 0.000000 0.000000 0.000000 0
440 203 0.000000 0.000000 0.000000 0
442 203 0.000000 0.000000 0.000000 0
444 203 0.000000 0.000000 0.000000 0
446 203 0.000000 0.000000 0.000000 0
308 205 0.000000 0.000000 0.000000 0
310 205 0.000000 0.000000 0.000000 0
312 205 0.000000 0.000000 0.000000 0
314 205 0.000000 0.000000 0.000000 0
316 205 -0.067983 0.238321 0.217298 1
318 205 -0.027390 0.155665 0.203724 1
320 205 0.034352 0.043672 0.174261 1
322 205 0.071511 -0.057323 0.124067 1
324 205 0.092119 -0.154160 0.087645 1
326 205 0.123201 -0.252122 0.060800 1
328 205 0.167479 -0.352624 0.039197 1
330 205 0.216730 -0.447324 0.032788 1
332 205 0.277490 -0.531048 0.040549 1
334 205 0.344862 -0.602446 0.043348 1
336 205 0.403623 -0.654060 0.021662 1
338 205 0.444919 -0.686058 -0.037310 1
340 205 0.467174 -0.707149 -0.124776 1
342 205 0.482017 -0.714259 -0.217007 1
344 205 0.500914 -0.711037 -0.286626 1
346 205 0.530286 -0.702100 -0.321386 1
348 205 0.563524 -0.686143 -0.320978 1
350 205 0.600371 -0.667103 -0.305135 1
352 205 0.633008 -0.636840 -0.284038 1
354 205 0.665062 -0.592801 -0.262494 1
356 205 0.703905 -0.536053 -0.246367 1
358 205 0.742259 -0.467534 -0.244229 1
360 205 0.780606 -0.397561 -0.243922 1
362 205 0.808087 -0.330747 -0.234049 1
364 205 0.826328 -0.265651 -0.217423 1
366 205 0.840175 -0.198572 -0.202209 1
368 205 0.853950 -0.128477 -0.192476 1
370 205 0.868954 -0.060288 -0.186151 1
372 205 0.878034 0.007687 -0.181852 1
374 205 0.878597 0.074255 -0.180400 1
376 205 0.870179 0.138983 -0.178515 1
378 205 0.857278 0.199891 -0.167489 1
380 205 0.843517 0.255623 -0.148134 1
382 205 0.822936 0.305047 -0.128310 1
384 205 0.794639 0.350749 -0.114208 1
386 205 0.761598 0.395004 -0.108835 1
388 205 0.732024 0.436386 -0.102077 1
390 205 0.707335 0.476440 -0.088224 1
392 205 0.683576 0.513466 -0.074764 1
394 205 0.657565 0.547488 -0.066719 1
396 205 0.630952 0.577613 -0.060506 1
398 205 0.607153 0.602479 -0.055345 1
400 205 0.581755 0.622004 -0.054667 1
402 205 0.558529 0.635029 -0.053288 1
404 205 0.540081 0.639139 -0.049498 1
406 205 0.524883 0.640975 -0.047090 1
408 205 0.519857 0.641851 -0.046198 1
410 205 0.000000 0.000000 0.000000 0
412 205 0.000000 0.000000 0.000000 0
414 205 0.000000 0.000000 0.000000 0
416 205 0.000000 0.000000 0.000000 0
418 205 0.000000 0.000000 0.000000 0
420 205 0.000000 0.000000 0.000000 0
422 205 0.000000 0.000000 0.000000 0
424 205 0.000000 0.000000 0.000000 0
426 205 0.000000 0.000000 0.000000 0
428 205 0.000000 0.000000 0.000000 0
430 205 0.000000 0.000000 0.000000 0
432 205 0.000000 0.000000 0.000000 0
434 205 0.000000 0.000000 0.000000 0
436 205 0.000000 0.000000 0.000000 0
438 205 0.000000 0.000000 0.000000 0
440 205 0.000000 0.000000 0.000000 0
442 205 0.000000 0.000000 0.000000 0
444 205 0.000000 0.000000 0.000000 0
446 205 0.000000 0.000000 0.000000 0
308 207 0.000000 0.000000 0.000000 0
310 207 0.000000 0.000000 0.000000 0
312 207 0.000000 0.000000 0.000000 0
314 207 0.000000 0.000000 0.000000 0
316 207 0.132408 0.235147 0.304434 1
318 207 0.185626 0.138402 0.328373 1
320 207 0.276410 0.012646 0.300596 1
322 207 0.337924 -0.096240 0.257562 1
324 207 0.361841 -0.195394 0.226052 1
326 207 0.390727 -0.296936 0.202658 1
328 207 0.439454 -0.403533 0.177706 1
330 207 0.494330 -0.502777 0.162906 1
332 207 0.553476 -0.588581 0.159589 1
334 207 0.613968 -0.658297 0.148472 1
336 207 0.668078 -0.706376 0.112274 1
338 207 0.710705 -0.734310 0.040279 1
340 207 0.734374 -0.751536 -0.057109 1
342 207 0.742352 -0.754378 -0.154381 1
344 207 0.748502 -0.746930 -0.223044 1
346 207 0.759427 -0.732976 -0.257991 1
348 207 0.775234 -0.712963 -0.264829 1
350 207 0.791416 -0.691383 -0.265231 1
352 207 0.801856 -0.661727 -0.264619 1
354 207 0.811219 -0.621038 -0.261645 1
356 207 0.825150 -0.569088 -0.259448 1
358 207 0.844276 -0.503441 -0.262222 1
360 207 0.866795 -0.432884 -0.261660 1
362 207 0.885764 -0.362934 -0.246896 1
364 207 0.898357 -0.292799 -0.223552 1
366 207 0.908367 -0.219009 -0.204271 1
368 207 0.919112 -0.141815 -0.194835 1
370 207 0.931250 -0.065853 -0.190417 1
372 207 0.939083 0.007817 -0.186009 1
374 207 0.939034 0.080276 -0.184153 1
376 207 0.929152 0.149962 -0.183254 1
378 207 0.913271 0.215711 -0.173887 1
380 207 0.895341 0.275905 -0.155598 1
382 207 0.871139 0.328993 -0.135637 1
384 207 0.839819 0.378400 -0.120150 1
386 207 0.804836 0.425080 -0.111328 1
388 207 0.771772 0.468084 -0.101290 1
390 207 0.742870 0.509336 -0.086859 1
392 207 0.714785 0.547265 -0.074084 1
394 207 0.684548 0.580985 -0.065504 1
396 207 0.654421 0.609067 -0.057553 1
398 207 0.627509 0.629745 -0.051407 1
400 207 0.601987 0.644994 -0.050743 1
402 207 0.581984 0.653891 -0.048677 1
404 207 0.569451 0.654844 -0.040862 1
406 207 0.559841 0.653681 -0.033492 1
408 207 0.557710 0.652936 -0.027631 1
410 207 0.000000 0.000000 0.000000 0
412 207 0.000000 0.000000 0.000000 0
414 207 0.000000 0.000000 0.000000 0
416 207 0.000000 0.000000 0.000000 0
418 207 0.000000 0.000000 0.000000 0
420 207 0.000000 0.000000 0.000000 0
422 207 0.000000 0.000000 0.000000 0
424 207 0.000000 0.000000 0.000000 0
426 207 0.000000 0.000000 0.000000 0
428 207 0.000000 0.000000 0.000000 0
430 207 0.000000 0.000000 0.000000 0
432 207 0.000000 0.000000 0.000000 0
434 207 0.000000 0.000000 0.000000 0
436 207 0.000000 0.000000 0.000000 0
438 207 0.000000 0.000000 0.000000 0
440 207 0.000000 0.000000 0.000000 0
442 207 0.000000 0.000000 0.000000 0
444 207 0.000000 0.000000 0.000000 0
446 207 0.000000 0.000000 0.000000 0
308 209 0.000000 0.000000 0.000000 0
310 209 0.000000 0.000000 0.000000 0
312 209 0.000000 0.000000 0.000000 0
314 209 0.000000 0.000000 0.000000 0
316 209 0.457243 0.216935 0.377199 1
318 209 0.514156 0.109316 0.394142 1
320 209 0.599354 -0.027636 0.373465 1
322 209 0.654996 -0.139564 0.346490 1
324 209 0.672506 -0.237902 0.335057 1
326 209 0.699265 -0.340633 0.323109 1
328 209 0.753630 -0.450390 0.295035 1
330 209 0.815533 -0.551971 0.262860 1
332 209 0.873238 -0.637851 0.241555 1
334 209 0.927570 -0.705912 0.214154 1
336 209 0.981674 -0.752156 0.175769 1
338 209 1.032455 -0.777759 0.111908 1
340 209 1.065382 -0.791418 0.025134 1
342 209 1.074826 -0.788936 -0.061690 1
344 209 1.070181 -0.772890 -0.125423 1
346 209 1.066506 -0.750104 -0.160218 1
348 209 1.063523 -0.719227 -0.175185 1
350 209 1.061990 -0.690308 -0.192994 1
352 209 1.050461 -0.656669 -0.220549 1
354 209 1.032170 -0.617396 -0.248499 1
356 209 1.015897 -0.570898 -0.269650 1
358 209 1.001609 -0.513858 -0.283098 1
360 209 0.999784 -0.449376 -0.282156 1
362 209 0.997394 -0.383190 -0.260985 1
364 209 0.996123 -0.312699 -0.232535 1
366 209 0.994804 -0.235807 -0.211965 1
368 209 0.996943 -0.153778 -0.204457 1
370 209 1.003123 -0.072649 -0.201450 1
372 209 1.007934 0.007052 -0.195044 1
374 209 1.007300 0.084640 -0.190427 1
376 209 0.995955 0.160439 -0.188321 1
378 209 0.976406 0.232014 -0.180571 1
380 209 0.952701 0.297898 -0.164419 1
382 209 0.923994 0.355579 -0.142868 1
384 209 0.891176 0.408245 -0.122878 1
386 209 0.855198 0.457517 -0.108338 1
388 209 0.818475 0.501692 -0.097176 1
390 209 0.782800 0.543851 -0.085858 1
392 209 0.749116 0.581760 -0.074939 1
394 209 0.715176 0.614025 -0.063337 1
396 209 0.683679 0.638564 -0.046764 1
398 209 0.656928 0.654606 -0.031794 1
400 209 0.634253 0.663816 -0.020125 1
402 209 0.618502 0.668747 -0.009989 1
404 209 0.611447 0.666641 0.006474 1
406 209 0.605701 0.662843 0.019628 1
408 209 0.604372 0.661672 0.026705 1
410 209 0.000000 0.000000 0.000000 0
412 209 0.000000 0.000000 0.000000 0
414 209 0.000000 0.000000 0.000000 0
416 209 0.000000 0.000000 0.000000 0
418 209 0.000000 0.000000 0.000000 0
420 209 0.000000 0.000000 0.000000 0
422 209 0.000000 0.000000 0.000000 0
424 209 0.000000 0.000000 0.000000 0
426 209 0.000000 0.000000 0.000000 0
428 209 0.000000 0.000000 0.000000 0
430 209 0.000000 0.000000 0.000000 0
432 209 0.000000 0.000000 0.000000 0
434 209 0.000000 0.000000 0.000000 0
436 209 0.000000 0.000000 0.000000 0
438 209 0.000000 0.000000 0.000000 0
440 209 0.000000 0.000000 0.000000 0
442 209 0.000000 0.000000 0.000000 0
444 209 0.000000 0.000000 0.000000 0
446 209 0.000000 0.000000 0.000000 0
308 211 0.000000 0.000000 0.000000 0
310 211 0.000000 0.000000 0.000000 0
312 211 0.000000 0.000000 0.000000 0
314 211 0.000000 0.000000 0.000000 0
316 211 0.831457 0.180821 0.456880 1
318 211 0.890955 0.065081 0.456328 1
320 211 0.957519 -0.075853 0.427403 1
322 211 0.994677 -0.186637 0.407962 1
324 211 1.007417 -0.281080 0.404515 1
326 211 1.035064 -0.382440 0.396833 1
328 211 1.094962 -0.494223 0.362404 1
330 211 1.162189 -0.597951 0.314464 1
332 211 1.218971 -0.684085 0.274990 1
334 211 1.268272 -0.751398 0.239429 1
336 211 1.320074 -0.796290 0.207775 1
338 211 1.375226 -0.820221 0.163815 1
340 211 1.415416 -0.830042 0.103547 1
342 211 1.428135 -0.820687 0.037685 1
344 211 1.419108 -0.794187 -0.019432 1
346 211 1.403980 -0.757857 -0.057693 1
348 211 1.390097 -0.714729 -0.079452 1
350 211 1.375231 -0.673985 -0.111548 1
352 211 1.348903 -0.633629 -0.159196 1
354 211 1.308570 -0.591274 -0.212670 1
356 211 1.263151 -0.546967 -0.258177 1
358 211 1.218201 -0.496505 -0.285850 1
360 211 1.181494 -0.442531 -0.290586 1
362 211 1.151703 -0.385397 -0.269251 1
364 211 1.123586 -0.322222 -0.241089 1
366 211 1.103201 -0.248275 -0.222712 1
368 211 1.089711 -0.166642 -0.217587 1
370 211 1.084470 -0.082836 -0.215008 1
372 211 1.083300 0.001675 -0.205656 1
374 211 1.080010 0.086343 -0.196554 1
376 211 1.066831 0.169065 -0.192453 1
378 211 1.043695 0.248733 -0.185971 1
380 211 1.014589 0.321247 -0.172437 1
382 211 0.981405 0.384061 -0.150132 1
384 211 0.947031 0.440551 -0.124751 1
386 211 0.910149 0.492282 -0.105019 1
388 211 0.869104 0.538045 -0.092392 1
390 211 0.827381 0.580695 -0.083726 1
392 211 0.788822 0.617617 -0.071997 1
394 211 0.753842 0.647525 -0.051763 1
396 211 0.724446 0.668648 -0.019768 1
398 211 0.700429 0.680048 0.011828 1
400 211 0.679929 0.684762 0.036748 1
402 211 0.667148 0.684952 0.059537 1
404 211 0.662816 0.679928 0.084205 1
406 211 0.659603 0.673533 0.103190 1
408 211 0.660822 0.672403 0.108331 1
410 211 0.000000 0.000000 0.000000 0
412 211 0.000000 0.000000 0.000000 0
414 211 0.000000 0.000000 0.000000 0
416 211 0.000000 0.000000 0.000000 0
418 211 0.000000 0.000000 0.000000 0
420 211 0.000000 0.000000 0.000000 0
422 211 0.000000 0.000000 0.000000 0
424 211 0.000000 0.000000 0.000000 0
426 211 0.000000 0.000000 0.000000 0
428 211 0.000000 0.000000 0.000000 0
430 211 0.000000 0.000000 0.000000 0
432 211 0.000000 0.000000 0.000000 0
434 211 0.000000 0.000000 0.000000 0
436 211 0.000000 0.000000 0.000000 0
438 211 0.000000 0.000000 0.000000 0
440 211 0.000000 0.000000 0.000000 0
442 211 0.000000 0.000000 0.000000 0
444 211 0.000000 0.000000 0.000000 0
446 211 0.000000 0.000000 0.000000 0
308 213 0.000000 0.000000 0.000000 0
310 213 0.000000 0.000000 0.000000 0
312 213 0.000000 0.000000 0.000000 0
314 213 0.000000 0.000000 0.000000 0
316 213 1.163900 0.155114 0.516079 1
318 213 1.218620 0.034289 0.503462 1
320 213 1.275773 -0.111145 0.472479 1
322 213 1.309057 -0.224510 0.461512 1
324 213 1.330470 -0.318602 0.451027 1
326 213 1.365922 -0.418510 0.422494 1
328 213 1.430127 -0.530841 0.365103 1
330 213 1.496427 -0.636517 0.302588 1
332 213 1.548214 -0.723858 0.254252 1
334 213 1.587625 -0.790821 0.216210 1
336 213 1.631100 -0.834154 0.190960 1
338 213 1.680551 -0.854240 0.169281 1
340 213 1.720981 -0.858401 0.137068 1
342 213 1.737000 -0.840050 0.099574 1
344 213 1.730490 -0.801755 0.054221 1
346 213 1.715342 -0.752897 0.016206 1
348 213 1.700553 -0.696894 -0.009409 1
350 213 1.683705 -0.646462 -0.045243 1