TITLE = "B00009"
VARIABLES = "X", "Y", "Vx", "Vy", "Vz", "flag"
ZONE T="B00009", I=70, J=78
308 191 0.000000 0.000000 0.000000 0
310 191 0.000000 0.000000 0.000000 0
312 191 0.000000 0.000000 0.000000 0
314 191 0.000000 0.000000 0.000000 0
316 191 0.000000 0.000000 0.000000 0
318 191 0.000000 0.000000 0.000000 0
320 191 0.000000 0.000000 0.000000 0
322 191 0.000000 0.000000 0.000000 0
324 191 0.000000 0.000000 0.000000 0
326 191 0.000000 0.000000 0.000000 0
328 191 0.000000 0.000000 0.000000 0
330 191 0.000000 0.000000 0.000000 0
332 191 0.000000 0.000000 0.000000 0
334 191 0.000000 0.000000 0.000000 0
336 191 0.000000 0.000000 0.000000 0
338 191 0.000000 0.000000 0.000000 0
340 191 0.000000 0.000000 0.000000 0
342 191 0.000000 0.000000 0.000000 0
344 191 0.000000 0.000000 0.000000 0
346 191 0.000000 0.000000 0.000000 0
348 191 0.000000 0.000000 0.000000 0
350 191 0.000000 0.000000 0.000000 0
352 191 0.000000 0.000000 0.000000 0
354 191 0.000000 0.000000 0.000000 0
356 191 0.000000 0.000000 0.000000 0
358 191 0.000000 0.000000 0.000000 0
360 191 0.000000 0.000000 0.000000 0
362 191 0.000000 0.000000 0.000000 0
364 191 0.000000 0.000000 0.000000 0
366 191 0.000000 0.000000 0.000000 0
368 191 0.000000 0.000000 0.000000 0
370 191 0.000000 0.000000 0.000000 0
372 191 0.000000 0.000000 0.000000 0
374 191 0.000000 0.000000 0.000000 0
376 191 0.000000 0.000000 0.000000 0
378 191 0.000000 0.000000 0.000000 0
380 191 0.000000 0.000000 0.000000 0
382 191 0.000000 0.000000 0.000000 0
384 191 0.000000 0.000000 0.000000 0
386 191 0.000000 0.000000 0.000000 0
388 191 0.000000 0.000000 0.000000 0
390 191 0.000000 0.000000 0.000000 0
392 191 0.000000 0.000000 0.000000 0
394 191 0.000000 0.000000 0.000000 0
396 191 0.000000 0.000000 0.000000 0
398 191 0.000000 0.000000 0.000000 0
400 191 0.000000 0.000000 0.000000 0
402 191 0.000000 0.000000 0.000000 0
404 191 0.000000 0.000000 0.000000 0
406 191 0.000000 0.000000 0.000000 0
408 191 0.000000 0.000000 0.000000 0
410 191 0.000000 0.000000 0.000000 0
412 191 0.000000 0.000000 0.000000 0
414 191 0.000000 0.000000 0.000000 0
416 191 0.000000 0.000000 0.000000 0
418 191 0.000000 0.000000 0.000000 0
420 191 0.000000 0.000000 0.000000 0
422 191 0.000000 0.000000 0.000000 0
424 191 0.000000 0.000000 0.000000 0
426 191 0.000000 0.000000 0.000000 0
428 191 0.000000 0.000000 0.000000 0
430 191 0.000000 0.000000 0.000000 0
432 191 0.000000 0.000000 0.000000 0
434 191 0.000000 0.000000 0.000000 0
436 191 0.000000 0.000000 0.000000 0
438 191 0.000000 0.000000 0.000000 0
440 191 0.000000 0.000000 0.000000 0
442 191 0.000000 0.000000 0.000000 0
444 191 0.000000 0.000000 0.000000 0
446 191 0.000000 0.000000 0.000000 0
308 193 0.000000 0.000000 0.000000 0
310 193 0.000000 0.000000 0.000000 0
312 193 0.000000 0.000000 0.000000 0
314 193 0.000000 0.000000 0.000000 0
316 193 0.000000 0.000000 0.000000 0
318 193 0.000000 0.000000 0.000000 0
320 193 0.000000 0.000000 0.000000 0
322 193 0.000000 0.000000 0.000000 0
324 193 0.000000 0.000000 0.000000 0
326 193 0.000000 0.000000 0.000000 0
328 193 0.000000 0.000000 0.000000 0
330 193 0.000000 0.000000 0.000000 0
332 193 0.000000 0.000000 0.000000 0
334 193 0.000000 0.000000 0.000000 0
336 193 0.000000 0.000000 0.000000 0
338 193 0.000000 0.000000 0.000000 0
340 193 0.000000 0.000000 0.000000 0
342 193 0.000000 0.000000 0.000000 0
344 193 0.000000 0.000000 0.000000 0
346 193 0.000000 0.000000 0.000000 0
348 193 0.000000 0.000000 0.000000 0
350 193 0.000000 0.000000 0.000000 0
352 193 0.000000 0.000000 0.000000 0
354 193 0.000000 0.000000 0.000000 0
356 193 0.000000 0.000000 0.000000 0
358 193 0.000000 0.000000 0.000000 0
360 193 0.000000 0.000000 0.000000 0
362 193 0.000000 0.000000 0.000000 0
364 193 0.000000 0.000000 0.000000 0
366 193 0.000000 0.000000 0.000000 0
368 193 0.000000 0.000000 0.000000 0
370 193 0.000000 0.000000 0.000000 0
372 193 0.000000 0.000000 0.000000 0
374 193 0.000000 0.000000 0.000000 0
376 193 0.000000 0.000000 0.000000 0
378 193 0.000000 0.000000 0.000000 0
380 193 0.000000 0.000000 0.000000 0
382 193 0.000000 0.000000 0.000000 0
384 193 0.000000 0.000000 0.000000 0
386 193 0.000000 0.000000 0.000000 0
388 193 0.000000 0.000000 0.000000 0
390 193 0.000000 0.000000 0.000000 0
392 193 0.000000 0.000000 0.000000 0
394 193 0.000000 0.000000 0.000000 0
396 193 0.000000 0.000000 0.000000 0
398 193 0.000000 0.000000 0.000000 0
400 193 0.000000 0.000000 0.000000 0
402 193 0.000000 0.000000 0.000000 0
404 193 0.000000 0.000000 0.000000 0
406 193 0.000000 0.000000 0.000000 0
408 193 0.000000 0.000000 0.000000 0
410 193 0.000000 0.000000 0.000000 0
412 193 0.000000 0.000000 0.000000 0
414 193 0.000000 0.000000 0.000000 0
416 193 0.000000 0.000000 0.000000 0
418 193 0.000000 0.000000 0.000000 0
420 193 0.000000 0.000000 0.000000 0
422 193 0.000000 0.000000 0.000000 0
424 193 0.000000 0.000000 0.000000 0
426 193 0.000000 0.000000 0.000000 0
428 193 0.000000 0.000000 0.000000 0
430 193 0.000000 0.000000 0.000000 0
432 193 0.000000 0.000000 0.000000 0
434 193 0.000000 0.000000 0.000000 0
436 193 0.000000 0.000000 0.000000 0
438 193 0.000000 0.000000 0.000000 0
440 193 0.000000 0.000000 0.000000 0
442 193 0.000000 0.000000 0.000000 0
444 193 0.000000 0.000000 0.000000 0
446 193 0.000000 0.000000 0.000000 0
308 195 0.000000 0.000000 0.000000 0
310 195 0.000000 0.000000 0.000000 0
312 195 0.000000 0.000000 0.000000 0
314 195 0.000000 0.000000 0.000000 0
316 195 0.000000 0.000000 0.000000 0
318 195 0.000000 0.000000 0.000000 0
320 195 0.000000 0.000000 0.000000 0
322 195 0.000000 0.000000 0.000000 0
324 195 0.000000 0.000000 0.000000 0
326 195 0.000000 0.000000 0.000000 0
328 195 0.000000 0.000000 0.000000 0
330 195 0.000000 0.000000 0.000000 0
332 195 0.000000 0.000000 0.000000 0
334 195 0.000000 0.000000 0.000000 0
336 195 0.000000 0.000000 0.000000 0
338 195 0.000000 0.000000 0.000000 0
340 195 0.000000 0.000000 0.000000 0
342 195 0.000000 0.000000 0.000000 0
344 195 0.000000 0.000000 0.000000 0
346 195 0.000000 0.000000 0.000000 0
348 195 0.000000 0.000000 0.000000 0
350 195 0.000000 0.000000 0.000000 0
352 195 0.000000 0.000000 0.000000 0
354 195 0.000000 0.000000 0.000000 0
356 195 0.000000 0.000000 0.000000 0
358 195 0.000000 0.000000 0.000000 0
360 195 0.000000 0.000000 0.000000 0
362 195 0.000000 0.000000 0.000000 0
364 195 0.000000 0.000000 0.000000 0
366 195 0.000000 0.000000 0.000000 0
368 195 0.000000 0.000000 0.000000 0
370 195 0.000000 0.000000 0.000000 0
372 195 0.000000 0.000000 0.000000 0
374 195 0.000000 0.000000 0.000000 0
376 195 0.000000 0.000000 0.000000 0
378 195 0.000000 0.000000 0.000000 0
380 195 0.000000 0.000000 0.000000 0
382 195 0.000000 0.000000 0.000000 0
384 195 0.000000 0.000000 0.000000 0
386 195 0.000000 0.000000 0.000000 0
388 195 0.000000 0.000000 0.000000 0
390 195 0.000000 0.000000 0.000000 0
392 195 0.000000 0.000000 0.000000 0
394 195 0.000000 0.000000 0.000000 0
396 195 0.000000 0.000000 0.000000 0
398 195 0.000000 0.000000 0.000000 0
400 195 0.000000 0.000000 0.000000 0
402 195 0.000000 0.000000 0.000000 0
404 195 0.000000 0.000000 0.000000 0
406 195 0.000000 0.000000 0.000000 0
408 195 0.000000 0.000000 0.000000 0
410 195 0.000000 0.000000 0.000000 0
412 195 0.000000 0.000000 0.000000 0
414 195 0.000000 0.000000 0.000000 0
416 195 0.000000 0.000000 0.000000 0
418 195 0.000000 0.000000 0.000000 0
420 195 0.000000 0.000000 0.000000 0
422 195 0.000000 0.000000 0.000000 0
424 195 0.000000 0.000000 0.000000 0
426 195 0.000000 0.000000 0.000000 0
428 195 0.000000 0.000000 0.000000 0
430 195 0.000000 0.000000 0.000000 0
432 195 0.000000 0.000000 0.000000 0
434 195 0.000000 0.000000 0.000000 0
436 195 0.000000 0.000000 0.000000 0
438 195 0.000000 0.000000 0.000000 0
440 195 0.000000 0.000000 0.000000 0
442 195 0.000000 0.000000 0.000000 0
444 195 0.000000 0.000000 0.000000 0
446 195 0.000000 0.000000 0.000000 0
308 197 0.000000 0.000000 0.000000 0
310 197 0.000000 0.000000 0.000000 0
312 197 0.000000 0.000000 0.000000 0
314 197 0.000000 0.000000 0.000000 0
316 197 0.000000 0.000000 0.000000 0
318 197 -0.179416 -0.058966 -0.083940 1
320 197 -0.163877 -0.096536 -0.100843 1
322 197 -0.153856 -0.162709 -0.111021 1
324 197 -0.133880 -0.221455 -0.103725 1
326 197 -0.097902 -0.266685 -0.090610 1
328 197 -0.054093 -0.301887 -0.077834 1
330 197 -0.012710 -0.328621 -0.074867 1
332 197 0.035902 -0.345089 -0.086706 1
334 197 0.091280 -0.354382 -0.119672 1
336 197 0.146332 -0.357614 -0.150982 1
338 197 0.200401 -0.358122 -0.163237 1
340 197 0.252941 -0.358413 -0.155308 1
342 197 0.297164 -0.349619 -0.137510 1
344 197 0.335370 -0.328880 -0.118852 1
346 197 0.371695 -0.300565 -0.103372 1
348 197 0.408881 -0.268257 -0.104764 1
350 197 0.444323 -0.239421 -0.125437 1
352 197 0.471108 -0.213186 -0.155781 1
354 197 0.492408 -0.183541 -0.174481 1
356 197 0.511047 -0.150074 -0.176475 1
358 197 0.529728 -0.110958 -0.159751 1
360 197 0.550655 -0.070934 -0.137207 1
362 197 0.569515 -0.031646 -0.118455 1
364 197 0.582828 0.007294 -0.109188 1
366 197 0.586312 0.045989 -0.113015 1
368 197 0.577193 0.087923 -0.126461 1
370 197 0.563585 0.132389 -0.139557 1
372 197 0.554796 0.176107 -0.139930 1
374 197 0.553701 0.216484 -0.127436 1
376 197 0.555003 0.250678 -0.104084 1
378 197 0.546950 0.278081 -0.080723 1
380 197 0.529325 0.302546 -0.067083 1
382 197 0.502514 0.325097 -0.066205 1
384 197 0.471767 0.344900 -0.072641 1
386 197 0.441936 0.363695 -0.078758 1
388 197 0.415093 0.381765 -0.082222 1
390 197 0.391458 0.401699 -0.086148 1
392 197 0.373068 0.422323 -0.095557 1
394 197 0.358163 0.442772 -0.110514 1
396 197 0.345135 0.462240 -0.116230 1
398 197 0.335190 0.480118 -0.111200 1
400 197 0.324428 0.495555 -0.102241 1
402 197 0.311202 0.507202 -0.095740 1
404 197 0.333527 0.521381 -0.046343 1
406 197 0.000000 0.000000 0.000000 0
408 197 0.000000 0.000000 0.000000 0
410 197 0.000000 0.000000 0.000000 0
412 197 0.000000 0.000000 0.000000 0
414 197 0.000000 0.000000 0.000000 0
416 197 0.000000 0.000000 0.000000 0
418 197 0.000000 0.000000 0.000000 0
420 197 0.000000 0.000000 0.000000 0
422 197 0.000000 0.000000 0.000000 0
424 197 0.000000 0.000000 0.000000 0
426 197 0.000000 0.000000 0.000000 0
428 197 0.000000 0.000000 0.000000 0
430 197 0.000000 0.000000 0.000000 0
432 197 0.000000 0.000000 0.000000 0
434 197 0.000000 0.000000 0.000000 0
436 197 0.000000 0.000000 0.000000 0
438 197 0.000000 0.000000 0.000000 0
440 197 0.000000 0.000000 0.000000 0
442 197 0.000000 0.000000 0.000000 0
444 197 0.000000 0.000000 0.000000 0
446 197 0.000000 0.000000 0.000000 0
308 199 0.000000 0.000000 0.000000 0
310 199 0.000000 0.000000 0.000000 0
312 199 0.000000 0.000000 0.000000 0
314 199 0.000000 0.000000 0.000000 0
316 199 -0.210720 0.003545 -0.052300 1
318 199 -0.203213 -0.044549 -0.058237 1
320 199 -0.195221 -0.122705 -0.084744 1
322 199 -0.183356 -0.198533 -0.094905 1
324 199 -0.163831 -0.267841 -0.096081 1
326 199 -0.128513 -0.321508 -0.107444 1
328 199 -0.087243 -0.365663 -0.125869 1
330 199 -0.048068 -0.399959 -0.143183 1
332 199 0.002693 -0.423162 -0.162824 1
334 199 0.068105 -0.438537 -0.186541 1
336 199 0.135842 -0.445076 -0.202060 1
338 199 0.203504 -0.445723 -0.199359 1
340 199 0.264698 -0.443460 -0.190101 1
342 199 0.316612 -0.430944 -0.182977 1
344 199 0.363037 -0.407074 -0.182330 1
346 199 0.409605 -0.375717 -0.182745 1
348 199 0.459761 -0.337665 -0.187147 1
350 199 0.505134 -0.301060 -0.195196 1
352 199 0.539325 -0.263297 -0.197511 1
354 199 0.563847 -0.223829 -0.194347 1
356 199 0.583890 -0.181598 -0.184099 1
358 199 0.602163 -0.135650 -0.167623 1
360 199 0.621673 -0.089626 -0.148911 1
362 199 0.638338 -0.043207 -0.133558 1
364 199 0.650073 0.002126 -0.123995 1
366 199 0.653347 0.047842 -0.123154 1
368 199 0.646094 0.095516 -0.129794 1
370 199 0.634628 0.145277 -0.136952 1
372 199 0.624075 0.192899 -0.136438 1
374 199 0.616218 0.235835 -0.127367 1
376 199 0.605131 0.272136 -0.110984 1
378 199 0.586895 0.301269 -0.092492 1
380 199 0.561684 0.328345 -0.080641 1
382 199 0.532331 0.354265 -0.076667 1
384 199 0.501437 0.378638 -0.077021 1
386 199 0.472635 0.402485 -0.076533 1
388 199 0.446460 0.423382 -0.074216 1
390 199 0.422988 0.442381 -0.069282 1
392 199 0.404653 0.459170 -0.067611 1
394 199 0.390142 0.474084 -0.067344 1
396 199 0.378405 0.489265 -0.059196 1
398 199 0.371258 0.504220 -0.042558 1
400 199 0.365569 0.517688 -0.027737 1
402 199 0.358134 0.528856 -0.022982 1
404 199 0.350988 0.530958 -0.017594 1
406 199 0.372103 0.538921 -0.001215 1
408 199 0.000000 0.000000 0.000000 0
410 199 0.000000 0.000000 0.000000 0
412 199 0.000000 0.000000 0.000000 0
414 199 0.000000 0.000000 0.000000 0
416 199 0.000000 0.000000 0.000000 0
418 199 0.000000 0.000000 0.000000 0
420 199 0.000000 0.000000 0.000000 0
422 199 0.000000 0.000000 0.000000 0
424 199 0.000000 0.000000 0.000000 0
426 199 0.000000 0.000000 0.000000 0
428 199 0.000000 0.000000 0.000000 0
430 199 0.000000 0.000000 0.000000 0
432 199 0.000000 0.000000 0.000000 0
434 199 0.000000 0.000000 0.000000 0
436 199 0.000000 0.000000 0.000000 0
438 199 0.000000 0.000000 0.000000 0
440 199 0.000000 0.000000 0.000000 0
442 199 0.000000 0.000000 0.000000 0
444 199 0.000000 0.000000 0.000000 0
446 199 0.000000 0.000000 0.000000 0
308 201 0.000000 0.000000 0.000000 0
310 201 0.000000 0.000000 0.000000 0
312 201 0.000000 0.000000 0.000000 0
314 201 0.000000 0.000000 0.000000 0
316 201 -0.231151 -0.003132 0.015301 1
318 201 -0.222738 -0.064148 -0.008842 1
320 201 -0.196152 -0.151311 -0.066196 1
322 201 -0.173866 -0.234978 -0.093409 1
324 201 -0.150309 -0.311559 -0.099337 1
326 201 -0.111793 -0.375000 -0.122770 1
328 201 -0.069399 -0.427036 -0.154121 1
330 201 -0.031844 -0.468187 -0.177501 1
332 201 0.017378 -0.497331 -0.197015 1
334 201 0.082815 -0.518145 -0.215390 1
336 201 0.152440 -0.529020 -0.227021 1
338 201 0.220257 -0.530535 -0.226422 1
340 201 0.280262 -0.525947 -0.226720 1
342 201 0.332145 -0.510004 -0.232691 1
344 201 0.380591 -0.482835 -0.245265 1
346 201 0.433806 -0.448031 -0.252318 1
348 201 0.493554 -0.404565 -0.248615 1
350 201 0.550611 -0.358540 -0.235592 1
352 201 0.593066 -0.310531 -0.215217 1
354 201 0.623972 -0.260022 -0.195163 1
356 201 0.647278 -0.210096 -0.180066 1
358 201 0.666788 -0.158102 -0.167178 1
360 201 0.685973 -0.106534 -0.152970 1
362 201 0.701351 -0.054238 -0.139981 1
364 201 0.711113 -0.001624 -0.130768 1
366 201 0.713410 0.050055 -0.127841 1
368 201 0.707327 0.103626 -0.129178 1
370 201 0.698259 0.157980 -0.131598 1
372 201 0.687520 0.209372 -0.130473 1
374 201 0.673549 0.255509 -0.126382 1
376 201 0.652254 0.294530 -0.118408 1
378 201 0.622846 0.326640 -0.108584 1
380 201 0.591920 0.356413 -0.100037 1
382 201 0.561143 0.385600 -0.092904 1
384 201 0.531422 0.413719 -0.086657 1
386 201 0.504335 0.441722 -0.079697 1
388 201 0.478713 0.465382 -0.072961 1
390 201 0.454622 0.483906 -0.063624 1
392 201 0.435274 0.496737 -0.053126 1
394 201 0.419941 0.506749 -0.042960 1
396 201 0.407531 0.516536 -0.025753 1
398 201 0.401080 0.527230 -0.003901 1
400 201 0.397674 0.536835 0.010936 1
402 201 0.394724 0.544844 0.012033 1
404 201 0.392766 0.546841 0.007579 1
406 201 0.387772 0.541065 0.003319 1
408 201 0.406062 0.540531 0.005329 1
410 201 0.000000 0.000000 0.000000 0
412 201 0.000000 0.000000 0.000000 0
414 201 0.000000 0.000000 0.000000 0
416 201 0.000000 0.000000 0.000000 0
418 201 0.000000 0.000000 0.000000 0
420 201 0.000000 0.000000 0.000000 0
422 201 0.000000 0.000000 0.000000 0
424 201 0.000000 0.000000 0.000000 0
426 201 0.000000 0.000000 0.000000 0
428 201 0.000000 0.000000 0.000000 0
430 201 0.000000 0.000000 0.000000 0
432 201 0.000000 0.000000 0.000000 0
434 201 0.000000 0.000000 0.000000 0
436 201 0.000000 0.000000 0.000000 0
438 201 0.000000 0.000000 0.000000 0
440 201 0.000000 0.000000 0.000000 0
442 201 0.000000 0.000000 0.000000 0
444 201 0.000000 0.000000 0.000000 0
446 201 0.000000 0.000000 0.000000 0
308 203 0.000000 0.000000 0.000000 0
310 203 0.000000 0.000000 0.000000 0
312 203 0.000000 0.000000 0.000000 0
314 203 0.000000 0.000000 0.000000 0
316 203 -0.201101 -0.011119 0.104574 1
318 203 -0.174338 -0.088525 0.092686 1
320 203 -0.120749 -0.184902 -0.002726 1
322 203 -0.077696 -0.273185 -0.069575 1
324 203 -0.046699 -0.356160 -0.086588 1
326 203 -0.006094 -0.425981 -0.113631 1
328 203 0.037751 -0.483685 -0.148437 1
330 203 0.074101 -0.527410 -0.169940 1
332 203 0.119308 -0.558785 -0.184408 1
334 203 0.177790 -0.581749 -0.201242 1
336 203 0.237485 -0.594284 -0.220009 1
338 203 0.291236 -0.595541 -0.235150 1
340 203 0.339150 -0.589349 -0.249657 1
342 203 0.380451 -0.571028 -0.268659 1
344 203 0.422542 -0.542772 -0.285722 1
346 203 0.472269 -0.507019 -0.290362 1
348 203 0.532214 -0.461260 -0.274632 1
350 203 0.592348 -0.410266 -0.246128 1
352 203 0.639599 -0.353717 -0.212039 1
354 203 0.674374 -0.295146 -0.188204 1
356 203 0.701183 -0.237104 -0.174824 1
358 203 0.722121 -0.179395 -0.166037 1
360 203 0.741848 -0.122288 -0.155260 1
362 203 0.756696 -0.063896 -0.143608 1
364 203 0.765143 -0.004911 -0.135281 1
366 203 0.765777 0.053338 -0.132355 1
368 203 0.759236 0.111275 -0.131180 1
370 203 0.750756 0.169638 -0.129311 1
372 203 0.739205 0.224258 -0.126231 1
374 203 0.720922 0.273970 -0.124407 1
376 203 0.691335 0.317070 -0.123876 1
378 203 0.654279 0.353097 -0.122126 1
380 203 0.618062 0.387035 -0.118744 1
382 203 0.586309 0.418701 -0.109426 1
384 203 0.557641 0.449115 -0.095504 1
386 203 0.531487 0.479178 -0.081068 1
388 203 0.505530 0.504377 -0.069325 1
390 203 0.479748 0.522614 -0.056445 1
392 203 0.458314 0.533209 -0.041891 1
394 203 0.439989 0.538624 -0.026086 1
396 203 0.424821 0.543698 -0.007586 1
398 203 0.416297 0.548688 0.010931 1
400 203 0.413590 0.552327 0.021414 1
402 203 0.414729 0.553906 0.022013 1
404 203 0.420612 0.549975 0.019075 1
406 203 0.424416 0.541319 0.015623 1
408 203 0.424105 0.534872 0.016217 1
410 203 0.000000 0.000000 0.000000 0
412 203 0.000000 0.000000 0.000000 0
414 203 0.000000 0.000000 0.000000 0
416 203 0.000000 0.000000 0.000000 0
418 203 0.000000 0.000000 0.000000 0
420 203 0.000000 0.000000 0.000000 0
422 203 0.000000 0.000000 0.000000 0
424 203 0.000000 0.000000 0.000000 0
426 203 0.000000 0.000000 0.000000 0
428 203 0.000000 0.000000 0.000000 0
430 203 0.000000 0.000000 0.000000 0
432 203 0.000000 0.000000 0.000000 0
434 203 0.000000 0.000000 0.000000 0
436 203 0.000000 0.000000 0.000000 0
438 203 0.000000 0.000000 0.000000 0
440 203 0.000000 0.000000 0.000000 0
442 203 0.000000 0.000000 0.000000 0
444 203 0.000000 0.000000 0.000000 0
446 203 0.000000 0.000000 0.000000 0
308 205 0.000000 0.000000 0.000000 0
310 205 0.000000 0.000000 0.000000 0
312 205 0.000000 0.000000 0.000000 0
314 205 0.000000 0.000000 0.000000 0
316 205 -0.051303 -0.027383 0.195715 1
318 205 -0.015325 -0.118425 0.209533 1
320 205 0.068852 -0.228475 0.104160 1
322 205 0.136016 -0.321740 0.006484 1
324 205 0.173892 -0.409118 -0.020602 1
326 205 0.213093 -0.481510 -0.048303 1
328 205 0.256284 -0.538392 -0.084474 1
330 205 0.290773 -0.579662 -0.105492 1
332 205 0.331050 -0.608965 -0.119946 1
334 205 0.377594 -0.629322 -0.147270 1
336 205 0.418258 -0.639373 -0.185604 1
338 205 0.447952 -0.638035 -0.224007 1
340 205 0.471554 -0.630074 -0.256111 1
342 205 0.495585 -0.611404 -0.281377 1
344 205 0.520906 -0.584918 -0.295576 1
346 205 0.558168 -0.551717 -0.293738 1
348 205 0.606122 -0.508825 -0.270684 1
350 205 0.657371 -0.458035 -0.238959 1
352 205 0.698738 -0.398415 -0.208345 1
354 205 0.730454 -0.333024 -0.191585 1
356 205 0.756437 -0.267965 -0.183663 1
358 205 0.776630 -0.202131 -0.178482 1
360 205 0.795935 -0.138249 -0.168909 1
362 205 0.810042 -0.072389 -0.156741 1
364 205 0.817406 -0.005895 -0.148240 1
366 205 0.816737 0.058431 -0.144916 1
368 205 0.808857 0.121111 -0.140647 1
370 205 0.798989 0.182555 -0.134501 1
372 205 0.784967 0.241114 -0.125937 1
374 205 0.763456 0.295255 -0.121398 1
376 205 0.729803 0.343833 -0.121447 1
378 205 0.688540 0.385255 -0.123246 1
380 205 0.649003 0.423104 -0.122312 1
382 205 0.614073 0.456509 -0.112167 1
384 205 0.583415 0.487048 -0.094388 1
386 205 0.554636 0.516307 -0.074784 1
388 205 0.526103 0.540756 -0.058685 1
390 205 0.497087 0.557851 -0.043095 1
392 205 0.471659 0.566275 -0.027308 1
394 205 0.448790 0.568647 -0.012863 1
396 205 0.427778 0.568660 -0.002133 1
398 205 0.415577 0.568022 0.007033 1
400 205 0.413371 0.563674 0.013397 1
402 205 0.421276 0.556078 0.021864 1
404 205 0.438186 0.542303 0.033884 1
406 205 0.453582 0.524488 0.045317 1
408 205 0.457805 0.516772 0.050730 1
410 205 0.000000 0.000000 0.000000 0
412 205 0.000000 0.000000 0.000000 0
414 205 0.000000 0.000000 0.000000 0
416 205 0.000000 0.000000 0.000000 0
418 205 0.000000 0.000000 0.000000 0
420 205 0.000000 0.000000 0.000000 0
422 205 0.000000 0.000000 0.000000 0
424 205 0.000000 0.000000 0.000000 0
426 205 0.000000 0.000000 0.000000 0
428 205 0.000000 0.000000 0.000000 0
430 205 0.000000 0.000000 0.000000 0
432 205 0.000000 0.000000 0.000000 0
434 205 0.000000 0.000000 0.000000 0
436 205 0.000000 0.000000 0.000000 0
438 205 0.000000 0.000000 0.000000 0
440 205 0.000000 0.000000 0.000000 0
442 205 0.000000 0.000000 0.000000 0
444 205 0.000000 0.000000 0.000000 0
446 205 0.000000 0.000000 0.000000 0
308 207 0.000000 0.000000 0.000000 0
310 207 0.000000 0.000000 0.000000 0
312 207 0.000000 0.000000 0.000000 0
314 207 0.000000 0.000000 0.000000 0
316 207 0.168663 -0.035155 0.219389 1
318 207 0.215942 -0.147327 0.278160 1
320 207 0.321136 -0.271678 0.203577 1
322 207 0.408504 -0.372236 0.111268 1
324 207 0.450834 -0.463287 0.087959 1
326 207 0.488015 -0.535849 0.063942 1
328 207 0.530610 -0.588906 0.025023 1
330 207 0.564878 -0.626557 -0.002063 1
332 207 0.600872 -0.652109 -0.028262 1
334 207 0.638345 -0.668726 -0.074104 1
336 207 0.661775 -0.673993 -0.136986 1
338 207 0.666476 -0.668398 -0.199981 1
340 207 0.664524 -0.657771 -0.248203 1
342 207 0.665195 -0.638416 -0.279371 1
344 207 0.673781 -0.613325 -0.290347 1
346 207 0.693527 -0.583903 -0.282091 1
348 207 0.726381 -0.545232 -0.258244 1
350 207 0.760776 -0.498101 -0.233137 1
352 207 0.786956 -0.439185 -0.214291 1
354 207 0.807139 -0.371361 -0.206759 1
356 207 0.825329 -0.300087 -0.205157 1
358 207 0.841076 -0.227301 -0.202368 1
360 207 0.857269 -0.154709 -0.193574 1
362 207 0.869662 -0.080876 -0.180122 1
364 207 0.875893 -0.006111 -0.169581 1
366 207 0.874638 0.065280 -0.163654 1
368 207 0.866477 0.132935 -0.155424 1
370 207 0.855253 0.198755 -0.143288 1
372 207 0.839117 0.261622 -0.128393 1
374 207 0.815062 0.321705 -0.116572 1
376 207 0.779638 0.376158 -0.111247 1
378 207 0.736735 0.422738 -0.109088 1
380 207 0.694168 0.463918 -0.105801 1
382 207 0.654668 0.497923 -0.095043 1
384 207 0.617652 0.527347 -0.078123 1
386 207 0.583199 0.554450 -0.059926 1
388 207 0.549111 0.575964 -0.043468 1
390 207 0.515794 0.590574 -0.026616 1
392 207 0.486342 0.596378 -0.010024 1
394 207 0.458706 0.595522 0.001865 1
396 207 0.433562 0.591956 0.006290 1
398 207 0.417870 0.585224 0.006790 1
400 207 0.416221 0.573552 0.013621 1
402 207 0.430042 0.555560 0.034275 1
404 207 0.456804 0.530386 0.065822 1
406 207 0.481152 0.502897 0.093611 1
408 207 0.490362 0.492914 0.105386 1
410 207 0.000000 0.000000 0.000000 0
412 207 0.000000 0.000000 0.000000 0
414 207 0.000000 0.000000 0.000000 0
416 207 0.000000 0.000000 0.000000 0
418 207 0.000000 0.000000 0.000000 0
420 207 0.000000 0.000000 0.000000 0
422 207 0.000000 0.000000 0.000000 0
424 207 0.000000 0.000000 0.000000 0
426 207 0.000000 0.000000 0.000000 0
428 207 0.000000 0.000000 0.000000 0
430 207 0.000000 0.000000 0.000000 0
432 207 0.000000 0.000000 0.000000 0
434 207 0.000000 0.000000 0.000000 0
436 207 0.000000 0.000000 0.000000 0
438 207 0.000000 0.000000 0.000000 0
440 207 0.000000 0.000000 0.000000 0
442 207 0.000000 0.000000 0.000000 0
444 207 0.000000 0.000000 0.000000 0
446 207 0.000000 0.000000 0.000000 0
308 209 0.000000 0.000000 0.000000 0
310 209 0.000000 0.000000 0.000000 0
312 209 0.000000 0.000000 0.000000 0
314 209 0.000000 0.000000 0.000000 0
316 209 0.479818 -0.057225 0.203191 1
318 209 0.538013 -0.181103 0.290828 1
320 209 0.647160 -0.315031 0.264254 1
322 209 0.734643 -0.418836 0.200877 1
324 209 0.775397 -0.510591 0.195011 1
326 209 0.813326 -0.581657 0.179328 1
328 209 0.858447 -0.631328 0.139239 1
330 209 0.894591 -0.665547 0.099412 1
332 209 0.929453 -0.688001 0.055646 1
334 209 0.963609 -0.699359 -0.008473 1
336 209 0.980426 -0.698844 -0.080814 1
338 209 0.969283 -0.686867 -0.151965 1
340 209 0.944447 -0.671286 -0.209094 1
342 209 0.923515 -0.648478 -0.245172 1
344 209 0.911689 -0.621239 -0.257149 1
346 209 0.914563 -0.591825 -0.250143 1
348 209 0.925463 -0.554758 -0.238339 1
350 209 0.937517 -0.510692 -0.229041 1
352 209 0.937773 -0.456134 -0.224442 1
354 209 0.934014 -0.391858 -0.222332 1
356 209 0.933910 -0.321118 -0.221979 1
358 209 0.934681 -0.245399 -0.219343 1
360 209 0.941714 -0.167943 -0.210953 1
362 209 0.946699 -0.087333 -0.196841 1
364 209 0.948938 -0.005987 -0.184671 1
366 209 0.945668 0.072228 -0.176233 1
368 209 0.937124 0.146490 -0.164819 1
370 209 0.925121 0.218182 -0.149128 1
372 209 0.906983 0.288308 -0.129614 1
374 209 0.881113 0.354928 -0.112691 1
376 209 0.844534 0.415900 -0.099565 1
378 209 0.801195 0.466100 -0.088037 1
380 209 0.756655 0.508785 -0.075663 1
382 209 0.712140 0.542223 -0.060449 1
384 209 0.668552 0.570125 -0.045034 1
386 209 0.625392 0.593718 -0.032876 1
388 209 0.584665 0.610968 -0.019805 1
390 209 0.546312 0.621025 -0.002580 1
392 209 0.514686 0.623227 0.017697 1
394 209 0.485906 0.619096 0.032886 1
396 209 0.460831 0.612071 0.039027 1
398 209 0.445971 0.601267 0.041012 1
400 209 0.446021 0.582536 0.054372 1
402 209 0.462114 0.556480 0.085617 1
404 209 0.491912 0.521302 0.131434 1
406 209 0.519093 0.486250 0.168456 1
408 209 0.530380 0.475261 0.181446 1
410 209 0.000000 0.000000 0.000000 0
412 209 0.000000 0.000000 0.000000 0
414 209 0.000000 0.000000 0.000000 0
416 209 0.000000 0.000000 0.000000 0
418 209 0.000000 0.000000 0.000000 0
420 209 0.000000 0.000000 0.000000 0
422 209 0.000000 0.000000 0.000000 0
424 209 0.000000 0.000000 0.000000 0
426 209 0.000000 0.000000 0.000000 0
428 209 0.000000 0.000000 0.000000 0
430 209 0.000000 0.000000 0.000000 0
432 209 0.000000 0.000000 0.000000 0
434 209 0.000000 0.000000 0.000000 0
436 209 0.000000 0.000000 0.000000 0
438 209 0.000000 0.000000 0.000000 0
440 209 0.000000 0.000000 0.000000 0
442 209 0.000000 0.000000 0.000000 0
444 209 0.000000 0.000000 0.000000 0
446 209 0.000000 0.000000 0.000000 0
308 211 0.000000 0.000000 0.000000 0
310 211 0.000000 0.000000 0.000000 0
312 211 0.000000 0.000000 0.000000 0
314 211 0.000000 0.000000 0.000000 0
316 211 0.828075 -0.106981 0.219136 1
318 211 0.895949 -0.231814 0.302791 1
320 211 0.994490 -0.363636 0.293608 1
322 211 1.066593 -0.464514 0.255448 1
324 211 1.105405 -0.554091 0.257432 1
326 211 1.149728 -0.623881 0.247665 1
328 211 1.201226 -0.672135 0.208665 1
330 211 1.241879 -0.703869 0.161394 1
332 211 1.278992 -0.722409 0.105647 1
334 211 1.315111 -0.728589 0.045348 1
336 211 1.333679 -0.720259 -0.008725 1
338 211 1.318259 -0.700787 -0.068518 1
340 211 1.279027 -0.677088 -0.129468 1
342 211 1.238914 -0.647187 -0.176844 1
344 211 1.208708 -0.613493 -0.200774 1
346 211 1.190437 -0.579300 -0.207101 1
348 211 1.179928 -0.540288 -0.213522 1
350 211 1.163456 -0.497685 -0.226466 1
352 211 1.135952 -0.448034 -0.235201 1
354 211 1.101862 -0.391190 -0.237388 1
356 211 1.074330 -0.326790 -0.235253 1
358 211 1.053110 -0.255014 -0.229412 1
360 211 1.041363 -0.178006 -0.219227 1
362 211 1.034639 -0.095360 -0.204659 1
364 211 1.028039 -0.009192 -0.192666 1
366 211 1.020605 0.075354 -0.184312 1
368 211 1.010434 0.157835 -0.172782 1
370 211 0.997287 0.237981 -0.156336 1
372 211 0.977337 0.315991 -0.136746 1
374 211 0.948982 0.391024 -0.118955 1
376 211 0.910889 0.457694 -0.102292 1
378 211 0.867620 0.511803 -0.081328 1
380 211 0.822985 0.555930 -0.057634 1
382 211 0.777041 0.589280 -0.032349 1
384 211 0.729734 0.615849 -0.011960 1
386 211 0.682093 0.636469 0.000942 1
388 211 0.635424 0.647852 0.013892 1
390 211 0.594266 0.652832 0.034096 1
392 211 0.563028 0.650287 0.062863 1
394 211 0.536106 0.642560 0.087279 1
396 211 0.513592 0.632368 0.101268 1
398 211 0.501749 0.618034 0.110068 1
400 211 0.503882 0.595652 0.129597 1
402 211 0.520603 0.564152 0.168224 1
404 211 0.549049 0.523666 0.219288 1
406 211 0.575004 0.483627 0.258176 1
408 211 0.590513 0.471074 0.269749 1
410 211 0.000000 0.000000 0.000000 0
412 211 0.000000 0.000000 0.000000 0
414 211 0.000000 0.000000 0.000000 0
416 211 0.000000 0.000000 0.000000 0
418 211 0.000000 0.000000 0.000000 0
420 211 0.000000 0.000000 0.000000 0
422 211 0.000000 0.000000 0.000000 0
424 211 0.000000 0.000000 0.000000 0
426 211 0.000000 0.000000 0.000000 0
428 211 0.000000 0.000000 0.000000 0
430 211 0.000000 0.000000 0.000000 0
432 211 0.000000 0.000000 0.000000 0
434 211 0.000000 0.000000 0.000000 0
436 211 0.000000 0.000000 0.000000 0
438 211 0.000000 0.000000 0.000000 0
440 211 0.000000 0.000000 0.000000 0
442 211 0.000000 0.000000 0.000000 0
444 211 0.000000 0.000000 0.000000 0
446 211 0.000000 0.000000 0.000000 0
308 213 0.000000 0.000000 0.000000 0
310 213 0.000000 0.000000 0.000000 0
312 213 0.000000 0.000000 0.000000 0
314 213 0.000000 0.000000 0.000000 0
316 213 1.178200 -0.171406 0.267727 1
318 213 1.244547 -0.288385 0.327184 1
320 213 1.326787 -0.410172 0.311450 1
322 213 1.383064 -0.504972 0.273703 1
324 213 1.423947 -0.590404 0.265436 1
326 213 1.478161 -0.659544 0.252105 1
328 213 1.537896 -0.707883 0.215276 1
330 213 1.583676 -0.737066 0.169867 1
332 213 1.623820 -0.750805 0.121630 1
334 213 1.661377 -0.749417 0.094434 1
336 213 1.680688 -0.733001 0.079579 1
338 213 1.664556 -0.702843 0.047614 1
340 213 1.621024 -0.669481 -0.018129 1
342 213 1.571125 -0.629312 -0.086805 1
344 213 1.528135 -0.586428 -0.133096 1
346 213 1.494150 -0.545237 -0.160057 1
348 213 1.461912 -0.502566 -0.188731 1
350 213 1.424114 -0.459999 -0.218222 1
352 213 1.370336 -0.414406 -0.241021 1