TITLE = "B00023"
VARIABLES = "X", "Y", "Vx", "Vy", "Vz", "flag"
ZONE T="B00023", I=70, J=78
308 191 0.000000 0.000000 0.000000 0
310 191 0.000000 0.000000 0.000000 0
312 191 0.000000 0.000000 0.000000 0
314 191 0.000000 0.000000 0.000000 0
316 191 0.000000 0.000000 0.000000 0
318 191 0.000000 0.000000 0.000000 0
320 191 0.000000 0.000000 0.000000 0
322 191 0.000000 0.000000 0.000000 0
324 191 0.000000 0.000000 0.000000 0
326 191 0.000000 0.000000 0.000000 0
328 191 0.000000 0.000000 0.000000 0
330 191 0.000000 0.000000 0.000000 0
332 191 0.000000 0.000000 0.000000 0
334 191 0.000000 0.000000 0.000000 0
336 191 0.000000 0.000000 0.000000 0
338 191 0.000000 0.000000 0.000000 0
340 191 0.000000 0.000000 0.000000 0
342 191 0.000000 0.000000 0.000000 0
344 191 0.000000 0.000000 0.000000 0
346 191 0.000000 0.000000 0.000000 0
348 191 0.000000 0.000000 0.000000 0
350 191 0.000000 0.000000 0.000000 0
352 191 0.000000 0.000000 0.000000 0
354 191 0.000000 0.000000 0.000000 0
356 191 0.000000 0.000000 0.000000 0
358 191 0.000000 0.000000 0.000000 0
360 191 0.000000 0.000000 0.000000 0
362 191 0.000000 0.000000 0.000000 0
364 191 0.000000 0.000000 0.000000 0
366 191 0.000000 0.000000 0.000000 0
368 191 0.000000 0.000000 0.000000 0
370 191 0.000000 0.000000 0.000000 0
372 191 0.000000 0.000000 0.000000 0
374 191 0.000000 0.000000 0.000000 0
376 191 0.000000 0.000000 0.000000 0
378 191 0.000000 0.000000 0.000000 0
380 191 0.000000 0.000000 0.000000 0
382 191 0.000000 0.000000 0.000000 0
384 191 0.000000 0.000000 0.000000 0
386 191 0.000000 0.000000 0.000000 0
388 191 0.000000 0.000000 0.000000 0
390 191 0.000000 0.000000 0.000000 0
392 191 0.000000 0.000000 0.000000 0
394 191 0.000000 0.000000 0.000000 0
396 191 0.000000 0.000000 0.000000 0
398 191 0.000000 0.000000 0.000000 0
400 191 0.000000 0.000000 0.000000 0
402 191 0.000000 0.000000 0.000000 0
404 191 0.000000 0.000000 0.000000 0
406 191 0.000000 0.000000 0.000000 0
408 191 0.000000 0.000000 0.000000 0
410 191 0.000000 0.000000 0.000000 0
412 191 0.000000 0.000000 0.000000 0
414 191 0.000000 0.000000 0.000000 0
416 191 0.000000 0.000000 0.000000 0
418 191 0.000000 0.000000 0.000000 0
420 191 0.000000 0.000000 0.000000 0
422 191 0.000000 0.000000 0.000000 0
424 191 0.000000 0.000000 0.000000 0
426 191 0.000000 0.000000 0.000000 0
428 191 0.000000 0.000000 0.000000 0
430 191 0.000000 0.000000 0.000000 0
432 191 0.000000 0.000000 0.000000 0
434 191 0.000000 0.000000 0.000000 0
436 191 0.000000 0.000000 0.000000 0
438 191 0.000000 0.000000 0.000000 0
440 191 0.000000 0.000000 0.000000 0
442 191 0.000000 0.000000 0.000000 0
444 191 0.000000 0.000000 0.000000 0
446 191 0.000000 0.000000 0.000000 0
308 193 0.000000 0.000000 0.000000 0
310 193 0.000000 0.000000 0.000000 0
312 193 0.000000 0.000000 0.000000 0
314 193 0.000000 0.000000 0.000000 0
316 193 0.000000 0.000000 0.000000 0
318 193 0.000000 0.000000 0.000000 0
320 193 0.000000 0.000000 0.000000 0
322 193 0.000000 0.000000 0.000000 0
324 193 0.000000 0.000000 0.000000 0
326 193 0.000000 0.000000 0.000000 0
328 193 0.000000 0.000000 0.000000 0
330 193 0.000000 0.000000 0.000000 0
332 193 0.000000 0.000000 0.000000 0
334 193 0.000000 0.000000 0.000000 0
336 193 0.000000 0.000000 0.000000 0
338 193 0.000000 0.000000 0.000000 0
340 193 0.000000 0.000000 0.000000 0
342 193 0.000000 0.000000 0.000000 0
344 193 0.000000 0.000000 0.000000 0
346 193 0.000000 0.000000 0.000000 0
348 193 0.000000 0.000000 0.000000 0
350 193 0.000000 0.000000 0.000000 0
352 193 0.000000 0.000000 0.000000 0
354 193 0.000000 0.000000 0.000000 0
356 193 0.000000 0.000000 0.000000 0
358 193 0.000000 0.000000 0.000000 0
360 193 0.000000 0.000000 0.000000 0
362 193 0.000000 0.000000 0.000000 0
364 193 0.000000 0.000000 0.000000 0
366 193 0.000000 0.000000 0.000000 0
368 193 0.000000 0.000000 0.000000 0
370 193 0.000000 0.000000 0.000000 0
372 193 0.000000 0.000000 0.000000 0
374 193 0.000000 0.000000 0.000000 0
376 193 0.000000 0.000000 0.000000 0
378 193 0.000000 0.000000 0.000000 0
380 193 0.000000 0.000000 0.000000 0
382 193 0.000000 0.000000 0.000000 0
384 193 0.000000 0.000000 0.000000 0
386 193 0.000000 0.000000 0.000000 0
388 193 0.000000 0.000000 0.000000 0
390 193 0.000000 0.000000 0.000000 0
392 193 0.000000 0.000000 0.000000 0
394 193 0.000000 0.000000 0.000000 0
396 193 0.000000 0.000000 0.000000 0
398 193 0.000000 0.000000 0.000000 0
400 193 0.000000 0.000000 0.000000 0
402 193 0.000000 0.000000 0.000000 0
404 193 0.000000 0.000000 0.000000 0
406 193 0.000000 0.000000 0.000000 0
408 193 0.000000 0.000000 0.000000 0
410 193 0.000000 0.000000 0.000000 0
412 193 0.000000 0.000000 0.000000 0
414 193 0.000000 0.000000 0.000000 0
416 193 0.000000 0.000000 0.000000 0
418 193 0.000000 0.000000 0.000000 0
420 193 0.000000 0.000000 0.000000 0
422 193 0.000000 0.000000 0.000000 0
424 193 0.000000 0.000000 0.000000 0
426 193 0.000000 0.000000 0.000000 0
428 193 0.000000 0.000000 0.000000 0
430 193 0.000000 0.000000 0.000000 0
432 193 0.000000 0.000000 0.000000 0
434 193 0.000000 0.000000 0.000000 0
436 193 0.000000 0.000000 0.000000 0
438 193 0.000000 0.000000 0.000000 0
440 193 0.000000 0.000000 0.000000 0
442 193 0.000000 0.000000 0.000000 0
444 193 0.000000 0.000000 0.000000 0
446 193 0.000000 0.000000 0.000000 0
308 195 0.000000 0.000000 0.000000 0
310 195 0.000000 0.000000 0.000000 0
312 195 0.000000 0.000000 0.000000 0
314 195 0.000000 0.000000 0.000000 0
316 195 0.000000 0.000000 0.000000 0
318 195 0.000000 0.000000 0.000000 0
320 195 0.000000 0.000000 0.000000 0
322 195 0.000000 0.000000 0.000000 0
324 195 0.000000 0.000000 0.000000 0
326 195 0.000000 0.000000 0.000000 0
328 195 0.000000 0.000000 0.000000 0
330 195 0.000000 0.000000 0.000000 0
332 195 0.000000 0.000000 0.000000 0
334 195 0.000000 0.000000 0.000000 0
336 195 0.000000 0.000000 0.000000 0
338 195 0.000000 0.000000 0.000000 0
340 195 0.000000 0.000000 0.000000 0
342 195 0.000000 0.000000 0.000000 0
344 195 0.000000 0.000000 0.000000 0
346 195 0.000000 0.000000 0.000000 0
348 195 0.000000 0.000000 0.000000 0
350 195 0.000000 0.000000 0.000000 0
352 195 0.000000 0.000000 0.000000 0
354 195 0.000000 0.000000 0.000000 0
356 195 0.000000 0.000000 0.000000 0
358 195 0.000000 0.000000 0.000000 0
360 195 0.000000 0.000000 0.000000 0
362 195 0.000000 0.000000 0.000000 0
364 195 0.000000 0.000000 0.000000 0
366 195 0.000000 0.000000 0.000000 0
368 195 0.000000 0.000000 0.000000 0
370 195 0.000000 0.000000 0.000000 0
372 195 0.000000 0.000000 0.000000 0
374 195 0.000000 0.000000 0.000000 0
376 195 0.000000 0.000000 0.000000 0
378 195 0.000000 0.000000 0.000000 0
380 195 0.000000 0.000000 0.000000 0
382 195 0.000000 0.000000 0.000000 0
384 195 0.000000 0.000000 0.000000 0
386 195 0.000000 0.000000 0.000000 0
388 195 0.000000 0.000000 0.000000 0
390 195 0.000000 0.000000 0.000000 0
392 195 0.000000 0.000000 0.000000 0
394 195 0.000000 0.000000 0.000000 0
396 195 0.000000 0.000000 0.000000 0
398 195 0.000000 0.000000 0.000000 0
400 195 0.000000 0.000000 0.000000 0
402 195 0.000000 0.000000 0.000000 0
404 195 0.000000 0.000000 0.000000 0
406 195 0.000000 0.000000 0.000000 0
408 195 0.000000 0.000000 0.000000 0
410 195 0.000000 0.000000 0.000000 0
412 195 0.000000 0.000000 0.000000 0
414 195 0.000000 0.000000 0.000000 0
416 195 0.000000 0.000000 0.000000 0
418 195 0.000000 0.000000 0.000000 0
420 195 0.000000 0.000000 0.000000 0
422 195 0.000000 0.000000 0.000000 0
424 195 0.000000 0.000000 0.000000 0
426 195 0.000000 0.000000 0.000000 0
428 195 0.000000 0.000000 0.000000 0
430 195 0.000000 0.000000 0.000000 0
432 195 0.000000 0.000000 0.000000 0
434 195 0.000000 0.000000 0.000000 0
436 195 0.000000 0.000000 0.000000 0
438 195 0.000000 0.000000 0.000000 0
440 195 0.000000 0.000000 0.000000 0
442 195 0.000000 0.000000 0.000000 0
444 195 0.000000 0.000000 0.000000 0
446 195 0.000000 0.000000 0.000000 0
308 197 0.000000 0.000000 0.000000 0
310 197 0.000000 0.000000 0.000000 0
312 197 0.000000 0.000000 0.000000 0
314 197 0.000000 0.000000 0.000000 0
316 197 0.000000 0.000000 0.000000 0
318 197 0.011833 0.381135 -0.014353 1
320 197 -0.031392 0.355387 -0.029043 1
322 197 -0.096764 0.359493 -0.015355 1
324 197 -0.161490 0.366234 -0.024611 1
326 197 -0.217493 0.356580 -0.054780 1
328 197 -0.263416 0.325027 -0.092857 1
330 197 -0.295461 0.272383 -0.124660 1
332 197 -0.316345 0.204025 -0.141763 1
334 197 -0.330743 0.129938 -0.125853 1
336 197 -0.333882 0.054913 -0.096552 1
338 197 -0.329445 -0.024519 -0.075190 1
340 197 -0.326178 -0.110090 -0.069273 1
342 197 -0.318090 -0.197701 -0.078204 1
344 197 -0.295745 -0.283497 -0.101250 1
346 197 -0.260399 -0.358429 -0.128396 1
348 197 -0.210826 -0.423367 -0.155422 1
350 197 -0.156667 -0.484665 -0.172923 1
352 197 -0.099674 -0.539612 -0.164927 1
354 197 -0.034115 -0.591768 -0.141405 1
356 197 0.036897 -0.630012 -0.126722 1
358 197 0.101425 -0.643631 -0.145235 1
360 197 0.162130 -0.648877 -0.177743 1
362 197 0.227699 -0.640749 -0.208014 1
364 197 0.296802 -0.621506 -0.223823 1
366 197 0.361883 -0.593719 -0.218618 1
368 197 0.420453 -0.554649 -0.195732 1
370 197 0.479931 -0.511120 -0.175175 1
372 197 0.541158 -0.467263 -0.176643 1
374 197 0.597646 -0.424446 -0.191148 1
376 197 0.640624 -0.378764 -0.202173 1
378 197 0.668107 -0.326170 -0.200486 1
380 197 0.684961 -0.270754 -0.190767 1
382 197 0.701718 -0.216778 -0.180922 1
384 197 0.722760 -0.165941 -0.180348 1
386 197 0.743049 -0.113981 -0.187420 1
388 197 0.755701 -0.058715 -0.188776 1
390 197 0.763046 -0.004860 -0.178080 1
392 197 0.766817 0.043682 -0.166711 1
394 197 0.766190 0.090751 -0.164234 1
396 197 0.760335 0.141215 -0.170435 1
398 197 0.748503 0.194577 -0.177088 1
400 197 0.731193 0.254743 -0.170240 1
402 197 0.710199 0.312952 -0.150809 1
404 197 0.749508 0.344402 -0.150585 1
406 197 0.000000 0.000000 0.000000 0
408 197 0.000000 0.000000 0.000000 0
410 197 0.000000 0.000000 0.000000 0
412 197 0.000000 0.000000 0.000000 0
414 197 0.000000 0.000000 0.000000 0
416 197 0.000000 0.000000 0.000000 0
418 197 0.000000 0.000000 0.000000 0
420 197 0.000000 0.000000 0.000000 0
422 197 0.000000 0.000000 0.000000 0
424 197 0.000000 0.000000 0.000000 0
426 197 0.000000 0.000000 0.000000 0
428 197 0.000000 0.000000 0.000000 0
430 197 0.000000 0.000000 0.000000 0
432 197 0.000000 0.000000 0.000000 0
434 197 0.000000 0.000000 0.000000 0
436 197 0.000000 0.000000 0.000000 0
438 197 0.000000 0.000000 0.000000 0
440 197 0.000000 0.000000 0.000000 0
442 197 0.000000 0.000000 0.000000 0
444 197 0.000000 0.000000 0.000000 0
446 197 0.000000 0.000000 0.000000 0
308 199 0.000000 0.000000 0.000000 0
310 199 0.000000 0.000000 0.000000 0
312 199 0.000000 0.000000 0.000000 0
314 199 0.000000 0.000000 0.000000 0
316 199 0.102146 0.428508 0.028719 1
318 199 0.042372 0.430917 0.018062 1
320 199 -0.030850 0.447082 0.026373 1
322 199 -0.097476 0.450930 0.033379 1
324 199 -0.161010 0.449663 0.025480 1
326 199 -0.215361 0.428504 0.006002 1
328 199 -0.258026 0.382177 -0.013340 1
330 199 -0.282378 0.313631 -0.024289 1
332 199 -0.292156 0.227462 -0.024453 1
334 199 -0.291027 0.132135 -0.000440 1
336 199 -0.280343 0.039346 0.027305 1
338 199 -0.260212 -0.057827 0.041345 1
340 199 -0.244014 -0.156182 0.040087 1
342 199 -0.222394 -0.255830 0.022976 1
344 199 -0.187693 -0.352488 -0.006245 1
346 199 -0.142859 -0.438064 -0.036591 1
348 199 -0.087766 -0.513699 -0.065893 1
350 199 -0.031546 -0.581985 -0.092581 1
352 199 0.026109 -0.640670 -0.110760 1
354 199 0.090394 -0.692490 -0.121298 1
356 199 0.157427 -0.728041 -0.141596 1
358 199 0.215874 -0.737694 -0.180327 1
360 199 0.270635 -0.738484 -0.221313 1
362 199 0.329803 -0.726686 -0.253651 1
364 199 0.393124 -0.705307 -0.271438 1
366 199 0.450962 -0.675227 -0.273773 1
368 199 0.503185 -0.632405 -0.261300 1
370 199 0.556636 -0.582236 -0.247576 1
372 199 0.611206 -0.529021 -0.245011 1
374 199 0.662652 -0.477298 -0.250405 1
376 199 0.704829 -0.423801 -0.251707 1
378 199 0.736879 -0.366345 -0.245632 1
380 199 0.762285 -0.306177 -0.233510 1
382 199 0.784505 -0.246910 -0.218148 1
384 199 0.806980 -0.189905 -0.208203 1
386 199 0.826996 -0.132158 -0.207239 1
388 199 0.840627 -0.072261 -0.206720 1
390 199 0.850481 -0.013366 -0.198204 1
392 199 0.855209 0.039362 -0.186434 1
394 199 0.853810 0.090888 -0.177879 1
396 199 0.846925 0.144974 -0.175520 1
398 199 0.835256 0.201633 -0.176272 1
400 199 0.820450 0.264537 -0.171906 1
402 199 0.802147 0.325667 -0.162213 1
404 199 0.775134 0.379192 -0.152513 1
406 199 0.806897 0.412403 -0.161395 1
408 199 0.000000 0.000000 0.000000 0
410 199 0.000000 0.000000 0.000000 0
412 199 0.000000 0.000000 0.000000 0
414 199 0.000000 0.000000 0.000000 0
416 199 0.000000 0.000000 0.000000 0
418 199 0.000000 0.000000 0.000000 0
420 199 0.000000 0.000000 0.000000 0
422 199 0.000000 0.000000 0.000000 0
424 199 0.000000 0.000000 0.000000 0
426 199 0.000000 0.000000 0.000000 0
428 199 0.000000 0.000000 0.000000 0
430 199 0.000000 0.000000 0.000000 0
432 199 0.000000 0.000000 0.000000 0
434 199 0.000000 0.000000 0.000000 0
436 199 0.000000 0.000000 0.000000 0
438 199 0.000000 0.000000 0.000000 0
440 199 0.000000 0.000000 0.000000 0
442 199 0.000000 0.000000 0.000000 0
444 199 0.000000 0.000000 0.000000 0
446 199 0.000000 0.000000 0.000000 0
308 201 0.000000 0.000000 0.000000 0
310 201 0.000000 0.000000 0.000000 0
312 201 0.000000 0.000000 0.000000 0
314 201 0.000000 0.000000 0.000000 0
316 201 0.123371 0.484238 0.041698 1
318 201 0.060045 0.514539 0.040400 1
320 201 -0.016134 0.535967 0.041037 1
322 201 -0.077730 0.536970 0.044736 1
324 201 -0.130937 0.523992 0.043401 1
326 201 -0.173787 0.484348 0.043022 1
328 201 -0.205355 0.421092 0.048024 1
330 201 -0.211845 0.334092 0.069392 1
332 201 -0.202583 0.230317 0.096375 1
334 201 -0.185709 0.119347 0.133916 1
336 201 -0.163676 0.011730 0.162453 1
338 201 -0.136783 -0.095496 0.172378 1
340 201 -0.111580 -0.203205 0.168662 1
342 201 -0.079522 -0.309996 0.151731 1
344 201 -0.030783 -0.414939 0.126081 1
346 201 0.024497 -0.509966 0.100388 1
348 201 0.082499 -0.594095 0.073451 1
350 201 0.137154 -0.668725 0.039486 1
352 201 0.190938 -0.728837 0.003091 1
354 201 0.249058 -0.779426 -0.037430 1
356 201 0.309524 -0.813539 -0.084422 1
358 201 0.360654 -0.821499 -0.143468 1
360 201 0.407614 -0.819300 -0.199505 1
362 201 0.458006 -0.804320 -0.242520 1
364 201 0.510002 -0.779970 -0.270745 1
366 201 0.556820 -0.747673 -0.285068 1
368 201 0.595027 -0.701931 -0.289703 1
370 201 0.636057 -0.647752 -0.286042 1
372 201 0.677511 -0.589194 -0.281715 1
374 201 0.719844 -0.530403 -0.280134 1
376 201 0.759007 -0.470687 -0.277193 1
378 201 0.794002 -0.406928 -0.270108 1
380 201 0.824956 -0.341884 -0.257641 1
382 201 0.851834 -0.276372 -0.236326 1
384 201 0.876074 -0.213386 -0.214774 1
386 201 0.896905 -0.150757 -0.201446 1
388 201 0.912611 -0.086545 -0.196185 1
390 201 0.924714 -0.023388 -0.191749 1
392 201 0.929696 0.034821 -0.186503 1
394 201 0.926730 0.090658 -0.178798 1
396 201 0.918576 0.148319 -0.170707 1
398 201 0.908439 0.207395 -0.165244 1
400 201 0.897936 0.272367 -0.160953 1
402 201 0.883924 0.337468 -0.161033 1
404 201 0.858962 0.397259 -0.165892 1
406 201 0.825001 0.449010 -0.170013 1
408 201 0.851518 0.479083 -0.177198 1
410 201 0.000000 0.000000 0.000000 0
412 201 0.000000 0.000000 0.000000 0
414 201 0.000000 0.000000 0.000000 0
416 201 0.000000 0.000000 0.000000 0
418 201 0.000000 0.000000 0.000000 0
420 201 0.000000 0.000000 0.000000 0
422 201 0.000000 0.000000 0.000000 0
424 201 0.000000 0.000000 0.000000 0
426 201 0.000000 0.000000 0.000000 0
428 201 0.000000 0.000000 0.000000 0
430 201 0.000000 0.000000 0.000000 0
432 201 0.000000 0.000000 0.000000 0
434 201 0.000000 0.000000 0.000000 0
436 201 0.000000 0.000000 0.000000 0
438 201 0.000000 0.000000 0.000000 0
440 201 0.000000 0.000000 0.000000 0
442 201 0.000000 0.000000 0.000000 0
444 201 0.000000 0.000000 0.000000 0
446 201 0.000000 0.000000 0.000000 0
308 203 0.000000 0.000000 0.000000 0
310 203 0.000000 0.000000 0.000000 0
312 203 0.000000 0.000000 0.000000 0
314 203 0.000000 0.000000 0.000000 0
316 203 0.176639 0.553112 0.041445 1
318 203 0.111582 0.587790 0.035487 1
320 203 0.043799 0.608776 0.038194 1
322 203 -0.000377 0.601957 0.049285 1
324 203 -0.030246 0.572576 0.063977 1
326 203 -0.056239 0.516236 0.083477 1
328 203 -0.069123 0.432801 0.118944 1
330 203 -0.057551 0.330964 0.169072 1
332 203 -0.029783 0.214438 0.222706 1
334 203 -0.003747 0.095948 0.269413 1
336 203 0.020577 -0.017216 0.295275 1
338 203 0.048134 -0.129473 0.298713 1
340 203 0.078096 -0.241688 0.293231 1
342 203 0.121414 -0.354295 0.279309 1
344 203 0.182223 -0.465495 0.258085 1
346 203 0.245955 -0.568161 0.236991 1
348 203 0.304164 -0.659422 0.211479 1
350 203 0.356335 -0.739171 0.174858 1
352 203 0.405858 -0.801171 0.128929 1
354 203 0.459818 -0.851189 0.076543 1
356 203 0.515478 -0.884118 0.015238 1
358 203 0.563051 -0.890231 -0.054744 1
360 203 0.604326 -0.884456 -0.123857 1
362 203 0.644771 -0.864881 -0.179366 1
364 203 0.684412 -0.836779 -0.219509 1
366 203 0.715288 -0.801619 -0.250801 1
368 203 0.737301 -0.754821 -0.274671 1
370 203 0.757012 -0.701062 -0.288441 1
372 203 0.778387 -0.643011 -0.287839 1
374 203 0.803929 -0.581858 -0.285005 1
376 203 0.832942 -0.516649 -0.283336 1
378 203 0.863604 -0.446940 -0.279947 1
380 203 0.893260 -0.375477 -0.271282 1
382 203 0.919253 -0.304532 -0.248404 1
384 203 0.942278 -0.235486 -0.217540 1
386 203 0.962017 -0.168434 -0.192999 1
388 203 0.977680 -0.100225 -0.181411 1
390 203 0.989420 -0.032147 -0.181309 1
392 203 0.992186 0.030982 -0.183161 1
394 203 0.985222 0.092101 -0.179380 1
396 203 0.975549 0.152827 -0.167882 1
398 203 0.967629 0.213941 -0.155495 1
400 203 0.962263 0.280190 -0.147395 1
402 203 0.953030 0.348536 -0.150058 1
404 203 0.932575 0.414540 -0.162647 1
406 203 0.902424 0.471645 -0.174405 1
408 203 0.888552 0.491356 -0.175786 1
410 203 0.000000 0.000000 0.000000 0
412 203 0.000000 0.000000 0.000000 0
414 203 0.000000 0.000000 0.000000 0
416 203 0.000000 0.000000 0.000000 0
418 203 0.000000 0.000000 0.000000 0
420 203 0.000000 0.000000 0.000000 0
422 203 0.000000 0.000000 0.000000 0
424 203 0.000000 0.000000 0.000000 0
426 203 0.000000 0.000000 0.000000 0
428 203 0.000000 0.000000 0.000000 0
430 203 0.000000 0.000000 0.000000 0
432 203 0.000000 0.000000 0.000000 0
434 203 0.000000 0.000000 0.000000 0
436 203 0.000000 0.000000 0.000000 0
438 203 0.000000 0.000000 0.000000 0
440 203 0.000000 0.000000 0.000000 0
442 203 0.000000 0.000000 0.000000 0
444 203 0.000000 0.000000 0.000000 0
446 203 0.000000 0.000000 0.000000 0
308 205 0.000000 0.000000 0.000000 0
310 205 0.000000 0.000000 0.000000 0
312 205 0.000000 0.000000 0.000000 0
314 205 0.000000 0.000000 0.000000 0
316 205 0.265182 0.609114 0.048022 1
318 205 0.210012 0.642448 0.045420 1
320 205 0.164740 0.654877 0.061359 1
322 205 0.149649 0.635222 0.088573 1
324 205 0.148540 0.591175 0.121303 1
326 205 0.145726 0.519365 0.161703 1
328 205 0.149806 0.423120 0.217380 1
330 205 0.177250 0.312287 0.287560 1
332 205 0.213972 0.192705 0.352303 1
334 205 0.241011 0.074692 0.398303 1
336 205 0.262150 -0.038786 0.416528 1
338 205 0.287497 -0.152652 0.410239 1
340 205 0.320609 -0.268369 0.395131 1
342 205 0.370294 -0.385563 0.375200 1
344 205 0.437105 -0.504032 0.349123 1
346 205 0.502033 -0.613474 0.325886 1
348 205 0.557146 -0.711565 0.299009 1
350 205 0.607262 -0.796610 0.263053 1
352 205 0.655724 -0.860982 0.218574 1
354 205 0.709856 -0.910493 0.168490 1
356 205 0.767162 -0.941560 0.111236 1
358 205 0.818813 -0.944019 0.050192 1
360 205 0.860813 -0.933815 -0.014456 1
362 205 0.896055 -0.908429 -0.068787 1
364 205 0.924849 -0.874403 -0.117295 1
366 205 0.942532 -0.834415 -0.165536 1
368 205 0.944476 -0.785049 -0.218405 1
370 205 0.941447 -0.733059 -0.256220 1
372 205 0.933149 -0.679892 -0.271848 1
374 205 0.934932 -0.620692 -0.276307 1
376 205 0.944771 -0.553923 -0.281512 1
378 205 0.961428 -0.480927 -0.285147 1
380 205 0.981075 -0.406346 -0.282491 1
382 205 0.998272 -0.331450 -0.262606 1
384 205 1.015507 -0.258259 -0.228870 1
386 205 1.029844 -0.185959 -0.198853 1
388 205 1.042015 -0.112369 -0.185549 1
390 205 1.050243 -0.038399 -0.189576 1
392 205 1.049492 0.030120 -0.195126 1
394 205 1.040113 0.095124 -0.191067 1
396 205 1.030221 0.158896 -0.174653 1
398 205 1.024517 0.221483 -0.156379 1
400 205 1.023364 0.288656 -0.142241 1
402 205 1.018304 0.359099 -0.141195 1
404 205 1.001872 0.429095 -0.152443 1
406 205 0.975587 0.489781 -0.163894 1
408 205 0.962167 0.510458 -0.167666 1
410 205 0.000000 0.000000 0.000000 0
412 205 0.000000 0.000000 0.000000 0
414 205 0.000000 0.000000 0.000000 0
416 205 0.000000 0.000000 0.000000 0
418 205 0.000000 0.000000 0.000000 0
420 205 0.000000 0.000000 0.000000 0
422 205 0.000000 0.000000 0.000000 0
424 205 0.000000 0.000000 0.000000 0
426 205 0.000000 0.000000 0.000000 0
428 205 0.000000 0.000000 0.000000 0
430 205 0.000000 0.000000 0.000000 0
432 205 0.000000 0.000000 0.000000 0
434 205 0.000000 0.000000 0.000000 0
436 205 0.000000 0.000000 0.000000 0
438 205 0.000000 0.000000 0.000000 0
440 205 0.000000 0.000000 0.000000 0
442 205 0.000000 0.000000 0.000000 0
444 205 0.000000 0.000000 0.000000 0
446 205 0.000000 0.000000 0.000000 0
308 207 0.000000 0.000000 0.000000 0
310 207 0.000000 0.000000 0.000000 0
312 207 0.000000 0.000000 0.000000 0
314 207 0.000000 0.000000 0.000000 0
316 207 0.385495 0.649228 0.080192 1
318 207 0.339365 0.678784 0.085342 1
320 207 0.317143 0.681532 0.113653 1
322 207 0.331934 0.649025 0.154969 1
324 207 0.356700 0.593490 0.200915 1
326 207 0.373131 0.511821 0.254701 1
328 207 0.392561 0.407131 0.324104 1
330 207 0.428615 0.294496 0.400155 1
332 207 0.470211 0.177384 0.464698 1
334 207 0.496539 0.061891 0.504875 1
336 207 0.513737 -0.050883 0.514018 1
338 207 0.534442 -0.166187 0.495524 1
340 207 0.564482 -0.284183 0.464825 1
342 207 0.612773 -0.405169 0.427904 1
344 207 0.677607 -0.529126 0.391740 1
346 207 0.738731 -0.646450 0.361928 1
348 207 0.789813 -0.751371 0.332486 1
350 207 0.837633 -0.842806 0.296416 1
352 207 0.885471 -0.910696 0.254503 1
354 207 0.940614 -0.960220 0.209679 1
356 207 1.002563 -0.988564 0.165327 1
358 207 1.061194 -0.986694 0.122870 1
360 207 1.110794 -0.970586 0.079618 1
362 207 1.147452 -0.938356 0.035618 1
364 207 1.172352 -0.895979 -0.013910 1
366 207 1.181568 -0.847790 -0.075186 1
368 207 1.171136 -0.792771 -0.146504 1
370 207 1.146721 -0.739834 -0.209068 1
372 207 1.115702 -0.690362 -0.242201 1
374 207 1.090527 -0.636432 -0.261805 1
376 207 1.078718 -0.573235 -0.277249 1
378 207 1.075993 -0.503428 -0.289695 1
380 207 1.079346 -0.431051 -0.295052 1
382 207 1.084508 -0.356854 -0.280536 1
384 207 1.091283 -0.281499 -0.248127 1
386 207 1.098836 -0.204709 -0.217118 1
388 207 1.105534 -0.124052 -0.204346 1
390 207 1.110411 -0.043199 -0.210472 1
392 207 1.108152 0.031006 -0.215604 1
394 207 1.098957 0.100209 -0.208683 1
396 207 1.089684 0.166513 -0.189464 1
398 207 1.085143 0.231043 -0.166973 1
400 207 1.085127 0.299165 -0.148532 1
402 207 1.081473 0.370814 -0.141801 1
404 207 1.066520 0.442883 -0.147938 1
406 207 1.041406 0.505253 -0.155347 1
408 207 1.028399 0.526501 -0.158231 1
410 207 0.000000 0.000000 0.000000 0
412 207 0.000000 0.000000 0.000000 0
414 207 0.000000 0.000000 0.000000 0
416 207 0.000000 0.000000 0.000000 0
418 207 0.000000 0.000000 0.000000 0
420 207 0.000000 0.000000 0.000000 0
422 207 0.000000 0.000000 0.000000 0
424 207 0.000000 0.000000 0.000000 0
426 207 0.000000 0.000000 0.000000 0
428 207 0.000000 0.000000 0.000000 0
430 207 0.000000 0.000000 0.000000 0
432 207 0.000000 0.000000 0.000000 0
434 207 0.000000 0.000000 0.000000 0
436 207 0.000000 0.000000 0.000000 0
438 207 0.000000 0.000000 0.000000 0
440 207 0.000000 0.000000 0.000000 0
442 207 0.000000 0.000000 0.000000 0
444 207 0.000000 0.000000 0.000000 0
446 207 0.000000 0.000000 0.000000 0
308 209 0.000000 0.000000 0.000000 0
310 209 0.000000 0.000000 0.000000 0
312 209 0.000000 0.000000 0.000000 0
314 209 0.000000 0.000000 0.000000 0
316 209 0.573416 0.665381 0.142463 1
318 209 0.543141 0.689378 0.154816 1
320 209 0.545702 0.682686 0.189764 1
322 209 0.581928 0.642141 0.233828 1
324 209 0.626536 0.579292 0.283064 1
326 209 0.654759 0.493076 0.340911 1
328 209 0.680418 0.387206 0.410443 1
330 209 0.718606 0.278986 0.476693 1
332 209 0.761000 0.167214 0.527872 1
334 209 0.787287 0.055337 0.551771 1
336 209 0.801830 -0.057697 0.549669 1
338 209 0.816190 -0.175602 0.518047 1
340 209 0.838479 -0.296695 0.473605 1
342 209 0.879278 -0.420938 0.425507 1
344 209 0.938271 -0.550419 0.385008 1
346 209 0.995648 -0.674028 0.354926 1
348 209 1.043624 -0.786922 0.327172 1
350 209 1.089402 -0.884866 0.292212 1
352 209 1.134324 -0.957110 0.251322 1
354 209 1.186364 -1.006457 0.209285 1
356 209 1.246945 -1.030754 0.173333 1
358 209 1.306444 -1.020017 0.147618 1
360 209 1.358954 -0.994691 0.118662 1
362 209 1.396372 -0.950050 0.081693 1
364 209 1.419171 -0.896448 0.033435 1
366 209 1.423854 -0.837675 -0.024810 1
368 209 1.406918 -0.774554 -0.089170 1
370 209 1.374479 -0.716971 -0.148865 1
372 209 1.330562 -0.666675 -0.189735 1
374 209 1.288852 -0.616452 -0.222082 1
376 209 1.253739 -0.561562 -0.252801 1
378 209 1.227933 -0.501469 -0.277147 1
380 209 1.208714 -0.438319 -0.293056 1
382 209 1.194327 -0.370351 -0.287153 1
384 209 1.186624 -0.296921 -0.259576 1
386 209 1.180910 -0.217606 -0.231348 1
388 209 1.180114 -0.132187 -0.218873 1
390 209 1.180426 -0.045145 -0.222601 1
392 209 1.177866 0.034679 -0.224714 1
394 209 1.169725 0.108676 -0.217156 1
396 209 1.159855 0.178865 -0.201444 1
398 209 1.153304 0.245766 -0.182000 1
400 209 1.149361 0.315133 -0.164244 1
402 209 1.142395 0.386778 -0.154193 1
404 209 1.124274 0.458192 -0.153932 1
406 209 1.097939 0.519551 -0.154567 1
408 209 1.085919 0.540427 -0.155379 1
410 209 0.000000 0.000000 0.000000 0
412 209 0.000000 0.000000 0.000000 0
414 209 0.000000 0.000000 0.000000 0
416 209 0.000000 0.000000 0.000000 0
418 209 0.000000 0.000000 0.000000 0
420 209 0.000000 0.000000 0.000000 0
422 209 0.000000 0.000000 0.000000 0
424 209 0.000000 0.000000 0.000000 0
426 209 0.000000 0.000000 0.000000 0
428 209 0.000000 0.000000 0.000000 0
430 209 0.000000 0.000000 0.000000 0
432 209 0.000000 0.000000 0.000000 0
434 209 0.000000 0.000000 0.000000 0
436 209 0.000000 0.000000 0.000000 0
438 209 0.000000 0.000000 0.000000 0
440 209 0.000000 0.000000 0.000000 0
442 209 0.000000 0.000000 0.000000 0
444 209 0.000000 0.000000 0.000000 0
446 209 0.000000 0.000000 0.000000 0
308 211 0.000000 0.000000 0.000000 0
310 211 0.000000 0.000000 0.000000 0
312 211 0.000000 0.000000 0.000000 0
314 211 0.000000 0.000000 0.000000 0
316 211 0.799863 0.667475 0.211063 1
318 211 0.786177 0.686876 0.231470 1
320 211 0.804966 0.674974 0.267719 1
322 211 0.861401 0.627630 0.309141 1
324 211 0.921609 0.559748 0.356733 1
326 211 0.959962 0.470753 0.412650 1
328 211 0.987690 0.366224 0.474972 1
330 211 1.023987 0.263033 0.524686 1
332 211 1.065824 0.157565 0.552796 1
334 211 1.094389 0.049052 0.556010 1
336 211 1.110960 -0.063948 0.535183 1
338 211 1.124260 -0.184949 0.492082 1
340 211 1.143689 -0.310802 0.440646 1
342 211 1.180140 -0.439519 0.390274 1
344 211 1.236285 -0.573466 0.352922 1
346 211 1.291684 -0.702972 0.328372 1
348 211 1.338679 -0.822043 0.306968 1
350 211 1.382995 -0.927775 0.279064 1
352 211 1.424377 -1.005049 0.242726 1
354 211 1.468976 -1.055430 0.204190 1
356 211 1.520291 -1.075373 0.172369 1
358 211 1.569379 -1.055370 0.151707 1
360 211 1.613768 -1.017393 0.129350 1
362 211 1.644588 -0.961092 0.095245 1
364 211 1.660243 -0.894661 0.052892 1
366 211 1.659523 -0.825743 0.006723 1
368 211 1.639897 -0.752786 -0.038051 1
370 211 1.607682 -0.685517 -0.080541 1
372 211 1.565137 -0.627398 -0.118017 1
374 211 1.516962 -0.575052 -0.159016 1
376 211 1.467542 -0.525303 -0.201472 1
378 211 1.417866 -0.476538 -0.238953 1
380 211 1.373876 -0.424862 -0.266264 1
382 211 1.335525 -0.366475 -0.273280 1
384 211 1.306280 -0.299039 -0.258147 1
386 211 1.283825 -0.222240 -0.237900 1
388 211 1.269026 -0.136975 -0.225372 1
390 211 1.262472 -0.048010 -0.223619 1
392 211 1.257145 0.036514 -0.220596 1
394 211 1.248713 0.116191 -0.213920 1
396 211 1.236758 0.191941 -0.205735 1
398 211 1.225517 0.263101 -0.196174 1
400 211 1.215215 0.334159 -0.185108 1
402 211 1.201432 0.405501 -0.175870 1
404 211 1.179566 0.475149 -0.170156 1
406 211 1.153014 0.533905 -0.161071 1
408 211 1.143000 0.554011 -0.156063 1
410 211 0.000000 0.000000 0.000000 0
412 211 0.000000 0.000000 0.000000 0
414 211 0.000000 0.000000 0.000000 0
416 211 0.000000 0.000000 0.000000 0
418 211 0.000000 0.000000 0.000000 0
420 211 0.000000 0.000000 0.000000 0
422 211 0.000000 0.000000 0.000000 0
424 211 0.000000 0.000000 0.000000 0
426 211 0.000000 0.000000 0.000000 0
428 211 0.000000 0.000000 0.000000 0
430 211 0.000000 0.000000 0.000000 0
432 211 0.000000 0.000000 0.000000 0
434 211 0.000000 0.000000 0.000000 0
436 211 0.000000 0.000000 0.000000 0
438 211 0.000000 0.000000 0.000000 0
440 211 0.000000 0.000000 0.000000 0
442 211 0.000000 0.000000 0.000000 0
444 211 0.000000 0.000000 0.000000 0
446 211 0.000000 0.000000 0.000000 0
308 213 0.000000 0.000000 0.000000 0
310 213 0.000000 0.000000 0.000000 0
312 213 0.000000 0.000000 0.000000 0
314 213 0.000000 0.000000 0.000000 0
316 213 1.049853 0.656667 0.246111 1
318 213 1.044866 0.674676 0.272580 1
320 213 1.075805 0.659841 0.310692 1
322 213 1.142536 0.608961 0.351290 1
324 213 1.214691 0.536631 0.397559 1
326 213 1.258145 0.446300 0.450128 1
328 213 1.284080 0.344027 0.501835 1
330 213 1.315770 0.245123 0.534075 1
332 213 1.356126 0.143632 0.541201 1
334 213 1.390104 0.038163 0.520287 1
336 213 1.413826 -0.074355 0.481731 1
338 213 1.435029 -0.198261 0.427534 1
340 213 1.458933 -0.328364 0.375055 1
342 213 1.496315 -0.461409 0.328863 1
344 213 1.549614 -0.598123 0.297144 1
346 213 1.601677 -0.730073 0.278491 1
348 213 1.645396 -0.853075 0.266386 1
350 213 1.687405 -0.963512 0.248348 1
352 213 1.723360 -1.044702 0.222749 1
354 213 1.757767 -1.094411 0.190671 1