TITLE = "B00028"
VARIABLES = "X", "Y", "Vx", "Vy", "Vz", "flag"
ZONE T="B00028", I=70, J=78
308 191 0.000000 0.000000 0.000000 0
310 191 0.000000 0.000000 0.000000 0
312 191 0.000000 0.000000 0.000000 0
314 191 0.000000 0.000000 0.000000 0
316 191 0.000000 0.000000 0.000000 0
318 191 0.000000 0.000000 0.000000 0
320 191 0.000000 0.000000 0.000000 0
322 191 0.000000 0.000000 0.000000 0
324 191 0.000000 0.000000 0.000000 0
326 191 0.000000 0.000000 0.000000 0
328 191 0.000000 0.000000 0.000000 0
330 191 0.000000 0.000000 0.000000 0
332 191 0.000000 0.000000 0.000000 0
334 191 0.000000 0.000000 0.000000 0
336 191 0.000000 0.000000 0.000000 0
338 191 0.000000 0.000000 0.000000 0
340 191 0.000000 0.000000 0.000000 0
342 191 0.000000 0.000000 0.000000 0
344 191 0.000000 0.000000 0.000000 0
346 191 0.000000 0.000000 0.000000 0
348 191 0.000000 0.000000 0.000000 0
350 191 0.000000 0.000000 0.000000 0
352 191 0.000000 0.000000 0.000000 0
354 191 0.000000 0.000000 0.000000 0
356 191 0.000000 0.000000 0.000000 0
358 191 0.000000 0.000000 0.000000 0
360 191 0.000000 0.000000 0.000000 0
362 191 0.000000 0.000000 0.000000 0
364 191 0.000000 0.000000 0.000000 0
366 191 0.000000 0.000000 0.000000 0
368 191 0.000000 0.000000 0.000000 0
370 191 0.000000 0.000000 0.000000 0
372 191 0.000000 0.000000 0.000000 0
374 191 0.000000 0.000000 0.000000 0
376 191 0.000000 0.000000 0.000000 0
378 191 0.000000 0.000000 0.000000 0
380 191 0.000000 0.000000 0.000000 0
382 191 0.000000 0.000000 0.000000 0
384 191 0.000000 0.000000 0.000000 0
386 191 0.000000 0.000000 0.000000 0
388 191 0.000000 0.000000 0.000000 0
390 191 0.000000 0.000000 0.000000 0
392 191 0.000000 0.000000 0.000000 0
394 191 0.000000 0.000000 0.000000 0
396 191 0.000000 0.000000 0.000000 0
398 191 0.000000 0.000000 0.000000 0
400 191 0.000000 0.000000 0.000000 0
402 191 0.000000 0.000000 0.000000 0
404 191 0.000000 0.000000 0.000000 0
406 191 0.000000 0.000000 0.000000 0
408 191 0.000000 0.000000 0.000000 0
410 191 0.000000 0.000000 0.000000 0
412 191 0.000000 0.000000 0.000000 0
414 191 0.000000 0.000000 0.000000 0
416 191 0.000000 0.000000 0.000000 0
418 191 0.000000 0.000000 0.000000 0
420 191 0.000000 0.000000 0.000000 0
422 191 0.000000 0.000000 0.000000 0
424 191 0.000000 0.000000 0.000000 0
426 191 0.000000 0.000000 0.000000 0
428 191 0.000000 0.000000 0.000000 0
430 191 0.000000 0.000000 0.000000 0
432 191 0.000000 0.000000 0.000000 0
434 191 0.000000 0.000000 0.000000 0
436 191 0.000000 0.000000 0.000000 0
438 191 0.000000 0.000000 0.000000 0
440 191 0.000000 0.000000 0.000000 0
442 191 0.000000 0.000000 0.000000 0
444 191 0.000000 0.000000 0.000000 0
446 191 0.000000 0.000000 0.000000 0
308 193 0.000000 0.000000 0.000000 0
310 193 0.000000 0.000000 0.000000 0
312 193 0.000000 0.000000 0.000000 0
314 193 0.000000 0.000000 0.000000 0
316 193 0.000000 0.000000 0.000000 0
318 193 0.000000 0.000000 0.000000 0
320 193 0.000000 0.000000 0.000000 0
322 193 0.000000 0.000000 0.000000 0
324 193 0.000000 0.000000 0.000000 0
326 193 0.000000 0.000000 0.000000 0
328 193 0.000000 0.000000 0.000000 0
330 193 0.000000 0.000000 0.000000 0
332 193 0.000000 0.000000 0.000000 0
334 193 0.000000 0.000000 0.000000 0
336 193 0.000000 0.000000 0.000000 0
338 193 0.000000 0.000000 0.000000 0
340 193 0.000000 0.000000 0.000000 0
342 193 0.000000 0.000000 0.000000 0
344 193 0.000000 0.000000 0.000000 0
346 193 0.000000 0.000000 0.000000 0
348 193 0.000000 0.000000 0.000000 0
350 193 0.000000 0.000000 0.000000 0
352 193 0.000000 0.000000 0.000000 0
354 193 0.000000 0.000000 0.000000 0
356 193 0.000000 0.000000 0.000000 0
358 193 0.000000 0.000000 0.000000 0
360 193 0.000000 0.000000 0.000000 0
362 193 0.000000 0.000000 0.000000 0
364 193 0.000000 0.000000 0.000000 0
366 193 0.000000 0.000000 0.000000 0
368 193 0.000000 0.000000 0.000000 0
370 193 0.000000 0.000000 0.000000 0
372 193 0.000000 0.000000 0.000000 0
374 193 0.000000 0.000000 0.000000 0
376 193 0.000000 0.000000 0.000000 0
378 193 0.000000 0.000000 0.000000 0
380 193 0.000000 0.000000 0.000000 0
382 193 0.000000 0.000000 0.000000 0
384 193 0.000000 0.000000 0.000000 0
386 193 0.000000 0.000000 0.000000 0
388 193 0.000000 0.000000 0.000000 0
390 193 0.000000 0.000000 0.000000 0
392 193 0.000000 0.000000 0.000000 0
394 193 0.000000 0.000000 0.000000 0
396 193 0.000000 0.000000 0.000000 0
398 193 0.000000 0.000000 0.000000 0
400 193 0.000000 0.000000 0.000000 0
402 193 0.000000 0.000000 0.000000 0
404 193 0.000000 0.000000 0.000000 0
406 193 0.000000 0.000000 0.000000 0
408 193 0.000000 0.000000 0.000000 0
410 193 0.000000 0.000000 0.000000 0
412 193 0.000000 0.000000 0.000000 0
414 193 0.000000 0.000000 0.000000 0
416 193 0.000000 0.000000 0.000000 0
418 193 0.000000 0.000000 0.000000 0
420 193 0.000000 0.000000 0.000000 0
422 193 0.000000 0.000000 0.000000 0
424 193 0.000000 0.000000 0.000000 0
426 193 0.000000 0.000000 0.000000 0
428 193 0.000000 0.000000 0.000000 0
430 193 0.000000 0.000000 0.000000 0
432 193 0.000000 0.000000 0.000000 0
434 193 0.000000 0.000000 0.000000 0
436 193 0.000000 0.000000 0.000000 0
438 193 0.000000 0.000000 0.000000 0
440 193 0.000000 0.000000 0.000000 0
442 193 0.000000 0.000000 0.000000 0
444 193 0.000000 0.000000 0.000000 0
446 193 0.000000 0.000000 0.000000 0
308 195 0.000000 0.000000 0.000000 0
310 195 0.000000 0.000000 0.000000 0
312 195 0.000000 0.000000 0.000000 0
314 195 0.000000 0.000000 0.000000 0
316 195 0.000000 0.000000 0.000000 0
318 195 0.000000 0.000000 0.000000 0
320 195 0.000000 0.000000 0.000000 0
322 195 0.000000 0.000000 0.000000 0
324 195 0.000000 0.000000 0.000000 0
326 195 0.000000 0.000000 0.000000 0
328 195 0.000000 0.000000 0.000000 0
330 195 0.000000 0.000000 0.000000 0
332 195 0.000000 0.000000 0.000000 0
334 195 0.000000 0.000000 0.000000 0
336 195 0.000000 0.000000 0.000000 0
338 195 0.000000 0.000000 0.000000 0
340 195 0.000000 0.000000 0.000000 0
342 195 0.000000 0.000000 0.000000 0
344 195 0.000000 0.000000 0.000000 0
346 195 0.000000 0.000000 0.000000 0
348 195 0.000000 0.000000 0.000000 0
350 195 0.000000 0.000000 0.000000 0
352 195 0.000000 0.000000 0.000000 0
354 195 0.000000 0.000000 0.000000 0
356 195 0.000000 0.000000 0.000000 0
358 195 0.000000 0.000000 0.000000 0
360 195 0.000000 0.000000 0.000000 0
362 195 0.000000 0.000000 0.000000 0
364 195 0.000000 0.000000 0.000000 0
366 195 0.000000 0.000000 0.000000 0
368 195 0.000000 0.000000 0.000000 0
370 195 0.000000 0.000000 0.000000 0
372 195 0.000000 0.000000 0.000000 0
374 195 0.000000 0.000000 0.000000 0
376 195 0.000000 0.000000 0.000000 0
378 195 0.000000 0.000000 0.000000 0
380 195 0.000000 0.000000 0.000000 0
382 195 0.000000 0.000000 0.000000 0
384 195 0.000000 0.000000 0.000000 0
386 195 0.000000 0.000000 0.000000 0
388 195 0.000000 0.000000 0.000000 0
390 195 0.000000 0.000000 0.000000 0
392 195 0.000000 0.000000 0.000000 0
394 195 0.000000 0.000000 0.000000 0
396 195 0.000000 0.000000 0.000000 0
398 195 0.000000 0.000000 0.000000 0
400 195 0.000000 0.000000 0.000000 0
402 195 0.000000 0.000000 0.000000 0
404 195 0.000000 0.000000 0.000000 0
406 195 0.000000 0.000000 0.000000 0
408 195 0.000000 0.000000 0.000000 0
410 195 0.000000 0.000000 0.000000 0
412 195 0.000000 0.000000 0.000000 0
414 195 0.000000 0.000000 0.000000 0
416 195 0.000000 0.000000 0.000000 0
418 195 0.000000 0.000000 0.000000 0
420 195 0.000000 0.000000 0.000000 0
422 195 0.000000 0.000000 0.000000 0
424 195 0.000000 0.000000 0.000000 0
426 195 0.000000 0.000000 0.000000 0
428 195 0.000000 0.000000 0.000000 0
430 195 0.000000 0.000000 0.000000 0
432 195 0.000000 0.000000 0.000000 0
434 195 0.000000 0.000000 0.000000 0
436 195 0.000000 0.000000 0.000000 0
438 195 0.000000 0.000000 0.000000 0
440 195 0.000000 0.000000 0.000000 0
442 195 0.000000 0.000000 0.000000 0
444 195 0.000000 0.000000 0.000000 0
446 195 0.000000 0.000000 0.000000 0
308 197 0.000000 0.000000 0.000000 0
310 197 0.000000 0.000000 0.000000 0
312 197 0.000000 0.000000 0.000000 0
314 197 0.000000 0.000000 0.000000 0
316 197 0.000000 0.000000 0.000000 0
318 197 0.167806 0.370234 -0.021554 1
320 197 0.117814 0.368273 -0.033592 1
322 197 0.065222 0.410932 -0.037505 1
324 197 0.013875 0.451367 -0.059842 1
326 197 -0.037749 0.468291 -0.082005 1
328 197 -0.093579 0.467167 -0.102668 1
330 197 -0.154162 0.456987 -0.124673 1
332 197 -0.210874 0.430140 -0.132094 1
334 197 -0.255684 0.385734 -0.105783 1
336 197 -0.288728 0.329234 -0.068601 1
338 197 -0.317887 0.262322 -0.031040 1
340 197 -0.344056 0.188089 0.000240 1
342 197 -0.363859 0.109266 0.007933 1
344 197 -0.367185 0.023294 -0.005127 1
346 197 -0.356602 -0.069576 -0.012915 1
348 197 -0.337530 -0.169263 -0.012276 1
350 197 -0.317048 -0.266073 -0.017943 1
352 197 -0.283702 -0.359566 -0.026898 1
354 197 -0.233599 -0.452540 -0.036285 1
356 197 -0.173918 -0.532886 -0.045109 1
358 197 -0.111861 -0.591869 -0.057649 1
360 197 -0.056694 -0.633995 -0.080553 1
362 197 -0.004156 -0.656093 -0.129487 1
364 197 0.053633 -0.676914 -0.188011 1
366 197 0.117357 -0.700315 -0.227627 1
368 197 0.187090 -0.712500 -0.236129 1
370 197 0.264377 -0.715479 -0.225015 1
372 197 0.341037 -0.699005 -0.219588 1
374 197 0.414028 -0.666834 -0.233470 1
376 197 0.480027 -0.626253 -0.261038 1
378 197 0.534697 -0.581445 -0.279557 1
380 197 0.581683 -0.535364 -0.278101 1
382 197 0.623708 -0.487109 -0.254447 1
384 197 0.664777 -0.438143 -0.223190 1
386 197 0.703986 -0.388460 -0.208084 1
388 197 0.738445 -0.336034 -0.205073 1
390 197 0.766047 -0.280979 -0.206949 1
392 197 0.785954 -0.223707 -0.203321 1
394 197 0.800035 -0.163863 -0.197893 1
396 197 0.812111 -0.102995 -0.197765 1
398 197 0.817291 -0.042244 -0.192408 1
400 197 0.811625 0.023606 -0.170141 1
402 197 0.799004 0.087624 -0.147748 1
404 197 0.848423 0.109343 -0.167114 1
406 197 0.000000 0.000000 0.000000 0
408 197 0.000000 0.000000 0.000000 0
410 197 0.000000 0.000000 0.000000 0
412 197 0.000000 0.000000 0.000000 0
414 197 0.000000 0.000000 0.000000 0
416 197 0.000000 0.000000 0.000000 0
418 197 0.000000 0.000000 0.000000 0
420 197 0.000000 0.000000 0.000000 0
422 197 0.000000 0.000000 0.000000 0
424 197 0.000000 0.000000 0.000000 0
426 197 0.000000 0.000000 0.000000 0
428 197 0.000000 0.000000 0.000000 0
430 197 0.000000 0.000000 0.000000 0
432 197 0.000000 0.000000 0.000000 0
434 197 0.000000 0.000000 0.000000 0
436 197 0.000000 0.000000 0.000000 0
438 197 0.000000 0.000000 0.000000 0
440 197 0.000000 0.000000 0.000000 0
442 197 0.000000 0.000000 0.000000 0
444 197 0.000000 0.000000 0.000000 0
446 197 0.000000 0.000000 0.000000 0
308 199 0.000000 0.000000 0.000000 0
310 199 0.000000 0.000000 0.000000 0
312 199 0.000000 0.000000 0.000000 0
314 199 0.000000 0.000000 0.000000 0
316 199 0.272404 0.379958 -0.005534 1
318 199 0.220148 0.401838 -0.002677 1
320 199 0.161914 0.452028 0.002330 1
322 199 0.102583 0.500456 -0.004315 1
324 199 0.042914 0.544492 -0.023242 1
326 199 -0.014416 0.563570 -0.035183 1
328 199 -0.073226 0.562895 -0.037542 1
330 199 -0.132334 0.547792 -0.038473 1
332 199 -0.185741 0.512013 -0.028836 1
334 199 -0.222857 0.454020 0.006780 1
336 199 -0.244592 0.382860 0.045955 1
338 199 -0.254109 0.296137 0.081465 1
340 199 -0.259509 0.204785 0.110905 1
342 199 -0.256511 0.108961 0.119507 1
344 199 -0.241903 0.008244 0.113757 1
346 199 -0.218040 -0.098250 0.113446 1
348 199 -0.188641 -0.211500 0.117009 1
350 199 -0.160899 -0.318408 0.107332 1
352 199 -0.120942 -0.421614 0.086710 1
354 199 -0.066147 -0.522729 0.063443 1
356 199 -0.001969 -0.613077 0.038877 1
358 199 0.065143 -0.684588 0.011635 1
360 199 0.126202 -0.738906 -0.024968 1
362 199 0.184799 -0.770019 -0.086101 1
364 199 0.245718 -0.793474 -0.149873 1
366 199 0.309261 -0.815114 -0.190488 1
368 199 0.374100 -0.822705 -0.203598 1
370 199 0.440931 -0.819008 -0.204688 1
372 199 0.498902 -0.794352 -0.216482 1
374 199 0.549921 -0.754466 -0.242414 1
376 199 0.591743 -0.706928 -0.275981 1
378 199 0.631300 -0.657515 -0.298547 1
380 199 0.667988 -0.606918 -0.305943 1
382 199 0.705203 -0.553140 -0.294064 1
384 199 0.743308 -0.496444 -0.274015 1
386 199 0.779512 -0.436912 -0.263233 1
388 199 0.811850 -0.375737 -0.259732 1
390 199 0.839237 -0.312596 -0.258847 1
392 199 0.861445 -0.249961 -0.252918 1
394 199 0.880322 -0.184777 -0.244400 1
396 199 0.897164 -0.119403 -0.241620 1
398 199 0.906937 -0.055150 -0.235800 1
400 199 0.906211 0.012332 -0.214409 1
402 199 0.898203 0.076876 -0.189887 1
404 199 0.885037 0.137308 -0.174166 1
406 199 0.928721 0.160784 -0.176354 1
408 199 0.000000 0.000000 0.000000 0
410 199 0.000000 0.000000 0.000000 0
412 199 0.000000 0.000000 0.000000 0
414 199 0.000000 0.000000 0.000000 0
416 199 0.000000 0.000000 0.000000 0
418 199 0.000000 0.000000 0.000000 0
420 199 0.000000 0.000000 0.000000 0
422 199 0.000000 0.000000 0.000000 0
424 199 0.000000 0.000000 0.000000 0
426 199 0.000000 0.000000 0.000000 0
428 199 0.000000 0.000000 0.000000 0
430 199 0.000000 0.000000 0.000000 0
432 199 0.000000 0.000000 0.000000 0
434 199 0.000000 0.000000 0.000000 0
436 199 0.000000 0.000000 0.000000 0
438 199 0.000000 0.000000 0.000000 0
440 199 0.000000 0.000000 0.000000 0
442 199 0.000000 0.000000 0.000000 0
444 199 0.000000 0.000000 0.000000 0
446 199 0.000000 0.000000 0.000000 0
308 201 0.000000 0.000000 0.000000 0
310 201 0.000000 0.000000 0.000000 0
312 201 0.000000 0.000000 0.000000 0
314 201 0.000000 0.000000 0.000000 0
316 201 0.318159 0.416896 0.000294 1
318 201 0.276994 0.465949 0.009267 1
320 201 0.212633 0.527787 0.011177 1
322 201 0.149672 0.582048 0.005358 1
324 201 0.092659 0.625162 -0.004127 1
326 201 0.043679 0.641042 0.002144 1
328 201 -0.004761 0.636254 0.019771 1
330 201 -0.049388 0.611757 0.042188 1
332 201 -0.091124 0.563669 0.069444 1
334 201 -0.118482 0.492242 0.111926 1
336 201 -0.129009 0.407220 0.151178 1
338 201 -0.125663 0.308910 0.184607 1
340 201 -0.112052 0.204860 0.219317 1
342 201 -0.092308 0.098036 0.241388 1
344 201 -0.065684 -0.014213 0.258030 1
346 201 -0.034546 -0.132263 0.274482 1
348 201 -0.001723 -0.255329 0.283578 1
350 201 0.029019 -0.371934 0.270696 1
352 201 0.069694 -0.482100 0.240978 1
354 201 0.123540 -0.590030 0.203070 1
356 201 0.187435 -0.686842 0.164942 1
358 201 0.257462 -0.768224 0.126922 1
360 201 0.325472 -0.833865 0.082716 1
362 201 0.391600 -0.871545 0.019673 1
364 201 0.458718 -0.895148 -0.042899 1
366 201 0.524177 -0.912151 -0.082430 1
368 201 0.586036 -0.912260 -0.102952 1
370 201 0.644423 -0.902121 -0.119662 1
372 201 0.685418 -0.872291 -0.154493 1
374 201 0.712247 -0.829216 -0.202089 1
376 201 0.730236 -0.780984 -0.251168 1
378 201 0.747399 -0.729966 -0.287337 1
380 201 0.770667 -0.676316 -0.306212 1
382 201 0.797480 -0.616613 -0.307144 1
384 201 0.828678 -0.552625 -0.295639 1
386 201 0.858023 -0.485376 -0.285775 1
388 201 0.884878 -0.416364 -0.279661 1
390 201 0.909042 -0.347203 -0.276849 1
392 201 0.930334 -0.278423 -0.270565 1
394 201 0.950394 -0.208610 -0.261080 1
396 201 0.969085 -0.138536 -0.255137 1
398 201 0.981224 -0.070797 -0.247291 1
400 201 0.983366 -0.000841 -0.225504 1
402 201 0.979572 0.065845 -0.199504 1
404 201 0.971384 0.128429 -0.180939 1
406 201 0.962213 0.191378 -0.173504 1
408 201 1.000766 0.211230 -0.170030 1
410 201 0.000000 0.000000 0.000000 0
412 201 0.000000 0.000000 0.000000 0
414 201 0.000000 0.000000 0.000000 0
416 201 0.000000 0.000000 0.000000 0
418 201 0.000000 0.000000 0.000000 0
420 201 0.000000 0.000000 0.000000 0
422 201 0.000000 0.000000 0.000000 0
424 201 0.000000 0.000000 0.000000 0
426 201 0.000000 0.000000 0.000000 0
428 201 0.000000 0.000000 0.000000 0
430 201 0.000000 0.000000 0.000000 0
432 201 0.000000 0.000000 0.000000 0
434 201 0.000000 0.000000 0.000000 0
436 201 0.000000 0.000000 0.000000 0
438 201 0.000000 0.000000 0.000000 0
440 201 0.000000 0.000000 0.000000 0
442 201 0.000000 0.000000 0.000000 0
444 201 0.000000 0.000000 0.000000 0
446 201 0.000000 0.000000 0.000000 0
308 203 0.000000 0.000000 0.000000 0
310 203 0.000000 0.000000 0.000000 0
312 203 0.000000 0.000000 0.000000 0
314 203 0.000000 0.000000 0.000000 0
316 203 0.387306 0.454816 0.001836 1
318 203 0.345737 0.513004 0.005685 1
320 203 0.280758 0.585778 0.006878 1
322 203 0.222166 0.645076 0.008189 1
324 203 0.179379 0.685973 0.016927 1
326 203 0.146611 0.697009 0.041186 1
328 203 0.119686 0.683488 0.080175 1
330 203 0.094694 0.646875 0.121002 1
332 203 0.072533 0.582304 0.163954 1
334 203 0.057641 0.497135 0.208780 1
336 203 0.055065 0.403103 0.242918 1
338 203 0.067416 0.299007 0.272068 1
340 203 0.091884 0.190871 0.314054 1
342 203 0.124029 0.077952 0.358208 1
344 203 0.155245 -0.040188 0.394880 1
346 203 0.185973 -0.164006 0.423313 1
348 203 0.215380 -0.291125 0.430766 1
350 203 0.242514 -0.412054 0.412674 1
352 203 0.277829 -0.527986 0.375441 1
354 203 0.326157 -0.641151 0.329753 1
356 203 0.385260 -0.744246 0.281615 1
358 203 0.455334 -0.833438 0.238356 1
360 203 0.528183 -0.908561 0.195118 1
362 203 0.601404 -0.951451 0.143191 1
364 203 0.675200 -0.973526 0.093436 1
366 203 0.745920 -0.982685 0.060386 1
368 203 0.808610 -0.974225 0.032423 1
370 203 0.862545 -0.955599 -0.003395 1
372 203 0.892768 -0.920663 -0.059183 1
374 203 0.902063 -0.875377 -0.129198 1
376 203 0.897861 -0.827787 -0.199398 1
378 203 0.894364 -0.777262 -0.252229 1
380 203 0.897801 -0.722658 -0.285951 1
382 203 0.910977 -0.661259 -0.296652 1
384 203 0.928844 -0.594493 -0.292773 1
386 203 0.946530 -0.524499 -0.283922 1
388 203 0.962969 -0.451944 -0.275711 1
390 203 0.979083 -0.378146 -0.271901 1
392 203 0.996283 -0.304378 -0.266764 1
394 203 1.014792 -0.228662 -0.258121 1
396 203 1.033334 -0.154142 -0.249985 1
398 203 1.046242 -0.082541 -0.238756 1
400 203 1.049976 -0.010385 -0.216554 1
402 203 1.048948 0.058003 -0.191080 1
404 203 1.045270 0.121513 -0.172844 1
406 203 1.040507 0.183375 -0.166351 1
408 203 1.038528 0.208116 -0.168528 1
410 203 0.000000 0.000000 0.000000 0
412 203 0.000000 0.000000 0.000000 0
414 203 0.000000 0.000000 0.000000 0
416 203 0.000000 0.000000 0.000000 0
418 203 0.000000 0.000000 0.000000 0
420 203 0.000000 0.000000 0.000000 0
422 203 0.000000 0.000000 0.000000 0
424 203 0.000000 0.000000 0.000000 0
426 203 0.000000 0.000000 0.000000 0
428 203 0.000000 0.000000 0.000000 0
430 203 0.000000 0.000000 0.000000 0
432 203 0.000000 0.000000 0.000000 0
434 203 0.000000 0.000000 0.000000 0
436 203 0.000000 0.000000 0.000000 0
438 203 0.000000 0.000000 0.000000 0
440 203 0.000000 0.000000 0.000000 0
442 203 0.000000 0.000000 0.000000 0
444 203 0.000000 0.000000 0.000000 0
446 203 0.000000 0.000000 0.000000 0
308 205 0.000000 0.000000 0.000000 0
310 205 0.000000 0.000000 0.000000 0
312 205 0.000000 0.000000 0.000000 0
314 205 0.000000 0.000000 0.000000 0
316 205 0.465351 0.481278 0.011255 1
318 205 0.429693 0.546847 0.008248 1
320 205 0.376824 0.628450 0.011244 1
322 205 0.335282 0.690319 0.027286 1
324 205 0.314557 0.727974 0.057590 1
326 205 0.303416 0.731557 0.101593 1
328 205 0.294587 0.708098 0.155649 1
330 205 0.291413 0.655630 0.214424 1
332 205 0.287865 0.576667 0.269473 1
334 205 0.287703 0.481341 0.316029 1
336 205 0.293003 0.383193 0.343627 1
338 205 0.310155 0.279094 0.366827 1
340 205 0.340262 0.171897 0.410501 1
342 205 0.376332 0.058988 0.460960 1
344 205 0.407745 -0.058833 0.496680 1
346 205 0.435373 -0.181832 0.516739 1
348 205 0.459590 -0.308073 0.509500 1
350 205 0.480258 -0.431173 0.482615 1
352 205 0.507393 -0.552210 0.442565 1
354 205 0.546075 -0.672968 0.394797 1
356 205 0.598402 -0.783170 0.343025 1
358 205 0.664758 -0.882265 0.298197 1
360 205 0.738267 -0.966499 0.262820 1
362 205 0.814385 -1.015402 0.231672 1
364 205 0.894300 -1.036102 0.203549 1
366 205 0.972252 -1.037649 0.179926 1
368 205 1.040449 -1.016682 0.144813 1
370 205 1.094829 -0.987970 0.095659 1
372 205 1.120552 -0.943880 0.028520 1
374 205 1.121495 -0.893084 -0.051141 1
376 205 1.105227 -0.841634 -0.132005 1
378 205 1.084990 -0.789130 -0.197875 1
380 205 1.071470 -0.735158 -0.241298 1
382 205 1.064094 -0.677573 -0.262677 1
384 205 1.063959 -0.614451 -0.268259 1
386 205 1.060387 -0.548054 -0.269346 1
388 205 1.059405 -0.476658 -0.266283 1
390 205 1.061608 -0.401567 -0.266091 1
392 205 1.071000 -0.323973 -0.263224 1
394 205 1.086376 -0.243895 -0.255610 1
396 205 1.103363 -0.164315 -0.246092 1
398 205 1.115868 -0.089611 -0.233421 1
400 205 1.119516 -0.016308 -0.213602 1
402 205 1.119291 0.051873 -0.192028 1
404 205 1.117226 0.114304 -0.176683 1
406 205 1.114182 0.173992 -0.171561 1
408 205 1.112434 0.198139 -0.173994 1
410 205 0.000000 0.000000 0.000000 0
412 205 0.000000 0.000000 0.000000 0
414 205 0.000000 0.000000 0.000000 0
416 205 0.000000 0.000000 0.000000 0
418 205 0.000000 0.000000 0.000000 0
420 205 0.000000 0.000000 0.000000 0
422 205 0.000000 0.000000 0.000000 0
424 205 0.000000 0.000000 0.000000 0
426 205 0.000000 0.000000 0.000000 0
428 205 0.000000 0.000000 0.000000 0
430 205 0.000000 0.000000 0.000000 0
432 205 0.000000 0.000000 0.000000 0
434 205 0.000000 0.000000 0.000000 0
436 205 0.000000 0.000000 0.000000 0
438 205 0.000000 0.000000 0.000000 0
440 205 0.000000 0.000000 0.000000 0
442 205 0.000000 0.000000 0.000000 0
444 205 0.000000 0.000000 0.000000 0
446 205 0.000000 0.000000 0.000000 0
308 207 0.000000 0.000000 0.000000 0
310 207 0.000000 0.000000 0.000000 0
312 207 0.000000 0.000000 0.000000 0
314 207 0.000000 0.000000 0.000000 0
316 207 0.557376 0.503948 0.027503 1
318 207 0.529383 0.577155 0.017894 1
320 207 0.494265 0.664039 0.022065 1
322 207 0.476457 0.725511 0.053699 1
324 207 0.478833 0.757773 0.105020 1
326 207 0.486158 0.753486 0.165859 1
328 207 0.493513 0.718738 0.234010 1
330 207 0.503739 0.655120 0.304683 1
332 207 0.516593 0.564306 0.372275 1
334 207 0.527543 0.464192 0.423830 1
336 207 0.539646 0.365329 0.450077 1
338 207 0.557503 0.264013 0.466041 1
340 207 0.585473 0.160865 0.499081 1
342 207 0.619086 0.052244 0.536308 1
344 207 0.650133 -0.062031 0.556383 1
346 207 0.678286 -0.182154 0.556290 1
348 207 0.702105 -0.308654 0.533698 1
350 207 0.719365 -0.435466 0.497868 1
352 207 0.738734 -0.563411 0.457454 1
354 207 0.768365 -0.692289 0.410523 1
356 207 0.811794 -0.812166 0.354864 1
358 207 0.872929 -0.920556 0.306033 1
360 207 0.943089 -1.016123 0.273366 1
362 207 1.017232 -1.072510 0.252312 1
364 207 1.097751 -1.095013 0.237369 1
366 207 1.181038 -1.089699 0.222042 1
368 207 1.254779 -1.056946 0.189272 1
370 207 1.312700 -1.014458 0.139911 1
372 207 1.338464 -0.960775 0.079718 1
374 207 1.337796 -0.900680 0.010304 1
376 207 1.319009 -0.841262 -0.063804 1
378 207 1.293204 -0.781572 -0.129610 1
380 207 1.268658 -0.725066 -0.178425 1
382 207 1.246233 -0.670275 -0.210172 1
384 207 1.223366 -0.613723 -0.234280 1
386 207 1.198154 -0.553242 -0.253697 1
388 207 1.173661 -0.487382 -0.266704 1
390 207 1.158865 -0.414942 -0.273617 1
392 207 1.157371 -0.337786 -0.271888 1
394 207 1.166733 -0.255799 -0.263110 1
396 207 1.179972 -0.173271 -0.252310 1
398 207 1.189752 -0.095252 -0.239005 1
400 207 1.191832 -0.020871 -0.221981 1
402 207 1.190610 0.047093 -0.205197 1
404 207 1.188037 0.108665 -0.193201 1
406 207 1.184288 0.167544 -0.189655 1
408 207 1.182760 0.191670 -0.190819 1
410 207 0.000000 0.000000 0.000000 0
412 207 0.000000 0.000000 0.000000 0
414 207 0.000000 0.000000 0.000000 0
416 207 0.000000 0.000000 0.000000 0
418 207 0.000000 0.000000 0.000000 0
420 207 0.000000 0.000000 0.000000 0
422 207 0.000000 0.000000 0.000000 0
424 207 0.000000 0.000000 0.000000 0
426 207 0.000000 0.000000 0.000000 0
428 207 0.000000 0.000000 0.000000 0
430 207 0.000000 0.000000 0.000000 0
432 207 0.000000 0.000000 0.000000 0
434 207 0.000000 0.000000 0.000000 0
436 207 0.000000 0.000000 0.000000 0
438 207 0.000000 0.000000 0.000000 0
440 207 0.000000 0.000000 0.000000 0
442 207 0.000000 0.000000 0.000000 0
444 207 0.000000 0.000000 0.000000 0
446 207 0.000000 0.000000 0.000000 0
308 209 0.000000 0.000000 0.000000 0
310 209 0.000000 0.000000 0.000000 0
312 209 0.000000 0.000000 0.000000 0
314 209 0.000000 0.000000 0.000000 0
316 209 0.684928 0.517965 0.039353 1
318 209 0.672500 0.599450 0.022319 1
320 209 0.664114 0.688266 0.029846 1
322 209 0.666946 0.744151 0.073686 1
324 209 0.688073 0.767700 0.140419 1
326 209 0.709468 0.755435 0.211379 1
328 209 0.728188 0.713192 0.286214 1
330 209 0.748713 0.643531 0.363190 1
332 209 0.770157 0.549584 0.437315 1
334 209 0.788866 0.450154 0.495883 1
336 209 0.803240 0.354174 0.521786 1
338 209 0.817853 0.257865 0.524886 1
340 209 0.838604 0.160110 0.534089 1
342 209 0.866781 0.056561 0.546856 1
344 209 0.900085 -0.053980 0.547869 1
346 209 0.934251 -0.173380 0.535952 1
348 209 0.964769 -0.303519 0.504468 1
350 209 0.983610 -0.436373 0.465859 1
352 209 0.999339 -0.572452 0.428262 1
354 209 1.022799 -0.710226 0.383837 1
356 209 1.059952 -0.838659 0.325408 1
358 209 1.114418 -0.956181 0.271088 1
360 209 1.178454 -1.059404 0.233889 1
362 209 1.242356 -1.121947 0.206638 1
364 209 1.313276 -1.145638 0.188454 1
366 209 1.389715 -1.135225 0.176802 1
368 209 1.460480 -1.091892 0.158798 1
370 209 1.517377 -1.038951 0.130340 1
372 209 1.542118 -0.975410 0.100129 1
374 209 1.541830 -0.906757 0.055080 1
376 209 1.525316 -0.835742 0.001490 1
378 209 1.501837 -0.764558 -0.055672 1
380 209 1.475997 -0.699101 -0.104623 1
382 209 1.444281 -0.641701 -0.147719 1
384 209 1.406585 -0.587444 -0.189845 1
386 209 1.360213 -0.533318 -0.232721 1
388 209 1.316868 -0.474697 -0.261744 1
390 209 1.283221 -0.410377 -0.276877 1
392 209 1.267511 -0.339088 -0.276504 1
394 209 1.264985 -0.260245 -0.268150 1
396 209 1.267983 -0.177588 -0.259112 1
398 209 1.271267 -0.098190 -0.247906 1
400 209 1.268464 -0.022671 -0.234919 1
402 209 1.264582 0.045811 -0.221528 1
404 209 1.259343 0.108138 -0.212210 1
406 209 1.253264 0.168462 -0.210131 1
408 209 1.250930 0.192504 -0.210246 1
410 209 0.000000 0.000000 0.000000 0
412 209 0.000000 0.000000 0.000000 0
414 209 0.000000 0.000000 0.000000 0
416 209 0.000000 0.000000 0.000000 0
418 209 0.000000 0.000000 0.000000 0
420 209 0.000000 0.000000 0.000000 0
422 209 0.000000 0.000000 0.000000 0
424 209 0.000000 0.000000 0.000000 0
426 209 0.000000 0.000000 0.000000 0
428 209 0.000000 0.000000 0.000000 0
430 209 0.000000 0.000000 0.000000 0
432 209 0.000000 0.000000 0.000000 0
434 209 0.000000 0.000000 0.000000 0
436 209 0.000000 0.000000 0.000000 0
438 209 0.000000 0.000000 0.000000 0
440 209 0.000000 0.000000 0.000000 0
442 209 0.000000 0.000000 0.000000 0
444 209 0.000000 0.000000 0.000000 0
446 209 0.000000 0.000000 0.000000 0
308 211 0.000000 0.000000 0.000000 0
310 211 0.000000 0.000000 0.000000 0
312 211 0.000000 0.000000 0.000000 0
314 211 0.000000 0.000000 0.000000 0
316 211 0.830775 0.515151 0.049382 1
318 211 0.836151 0.606377 0.028996 1
320 211 0.852308 0.697835 0.040801 1
322 211 0.878421 0.747476 0.094473 1
324 211 0.912138 0.764021 0.168254 1
326 211 0.945478 0.746115 0.243042 1
328 211 0.974922 0.700475 0.318685 1
330 211 1.004675 0.630999 0.395619 1
332 211 1.035156 0.539286 0.472328 1
334 211 1.060244 0.443333 0.534597 1
336 211 1.078163 0.351017 0.560617 1
338 211 1.092192 0.257617 0.554069 1
340 211 1.109277 0.161914 0.543480 1
342 211 1.134050 0.060005 0.533135 1
344 211 1.169887 -0.050059 0.519181 1
346 211 1.212250 -0.170146 0.497468 1
348 211 1.251275 -0.303140 0.459825 1
350 211 1.277795 -0.441772 0.417567 1
352 211 1.295832 -0.584737 0.381359 1
354 211 1.319150 -0.731124 0.340327 1
356 211 1.353711 -0.868059 0.283264 1
358 211 1.403381 -0.991291 0.227094 1
360 211 1.459061 -1.098998 0.183533 1
362 211 1.510822 -1.163102 0.147757 1
364 211 1.563646 -1.186516 0.122711 1
366 211 1.624090 -1.172784 0.113236 1
368 211 1.680591 -1.123088 0.110636 1
370 211 1.727824 -1.062454 0.108707 1
372 211 1.746120 -0.992469 0.105033 1
374 211 1.742246 -0.915453 0.087327 1
376 211 1.725005 -0.835140 0.050018 1
378 211 1.702781 -0.751213 0.003405 1
380 211 1.677586 -0.674271 -0.042749 1
382 211 1.643349 -0.608680 -0.089314 1
384 211 1.597931 -0.551133 -0.142460 1
386 211 1.542471 -0.498271 -0.196109 1
388 211 1.484547 -0.446429 -0.237642 1
390 211 1.436116 -0.390539 -0.259924 1
392 211 1.401679 -0.329113 -0.266160 1
394 211 1.381522 -0.257264 -0.263713 1
396 211 1.368763 -0.178186 -0.260749 1
398 211 1.360170 -0.099614 -0.254114 1
400 211 1.350234 -0.024036 -0.243735 1
402 211 1.340588 0.045366 -0.232240 1
404 211 1.331395 0.109318 -0.223803 1
406 211 1.321921 0.172533 -0.222344 1
408 211 1.319376 0.197735 -0.221606 1
410 211 0.000000 0.000000 0.000000 0
412 211 0.000000 0.000000 0.000000 0
414 211 0.000000 0.000000 0.000000 0
416 211 0.000000 0.000000 0.000000 0
418 211 0.000000 0.000000 0.000000 0
420 211 0.000000 0.000000 0.000000 0
422 211 0.000000 0.000000 0.000000 0
424 211 0.000000 0.000000 0.000000 0
426 211 0.000000 0.000000 0.000000 0
428 211 0.000000 0.000000 0.000000 0
430 211 0.000000 0.000000 0.000000 0
432 211 0.000000 0.000000 0.000000 0
434 211 0.000000 0.000000 0.000000 0
436 211 0.000000 0.000000 0.000000 0
438 211 0.000000 0.000000 0.000000 0
440 211 0.000000 0.000000 0.000000 0
442 211 0.000000 0.000000 0.000000 0
444 211 0.000000 0.000000 0.000000 0
446 211 0.000000 0.000000 0.000000 0
308 213 0.000000 0.000000 0.000000 0
310 213 0.000000 0.000000 0.000000 0
312 213 0.000000 0.000000 0.000000 0
314 213 0.000000 0.000000 0.000000 0
316 213 0.998783 0.484719 0.048613 1
318 213 1.017739 0.585950 0.029817 1
320 213 1.060896 0.683132 0.047891 1
322 213 1.105376 0.731183 0.106991 1
324 213 1.149521 0.743562 0.183265 1
326 213 1.189852 0.723758 0.257983 1
328 213 1.227680 0.679081 0.331237 1
330 213 1.265618 0.615167 0.403295 1
332 213 1.304771 0.530913 0.475327 1
334 213 1.338111 0.440978 0.535183 1
336 213 1.360158 0.350536 0.561939 1
338 213 1.376597 0.255968 0.557582 1
340 213 1.393568 0.157789 0.542777 1
342 213 1.416621 0.052842 0.520027 1
344 213 1.452002 -0.059167 0.490926 1
346 213 1.496915 -0.180060 0.456307 1
348 213 1.542546 -0.313598 0.407945 1
350 213 1.577235 -0.454081 0.360239 1
352 213 1.603245 -0.601747 0.320951 1
354 213 1.631131 -0.754517 0.282082 1
356 213 1.667022 -0.898175 0.231608 1