TITLE = "B00003"
VARIABLES = "X", "Y", "Vx", "Vy", "Vz", "flag"
ZONE T="B00003", I=70, J=78
308 191 0.000000 0.000000 0.000000 0
310 191 0.000000 0.000000 0.000000 0
312 191 0.000000 0.000000 0.000000 0
314 191 0.000000 0.000000 0.000000 0
316 191 0.000000 0.000000 0.000000 0
318 191 0.000000 0.000000 0.000000 0
320 191 0.000000 0.000000 0.000000 0
322 191 0.000000 0.000000 0.000000 0
324 191 0.000000 0.000000 0.000000 0
326 191 0.000000 0.000000 0.000000 0
328 191 0.000000 0.000000 0.000000 0
330 191 0.000000 0.000000 0.000000 0
332 191 0.000000 0.000000 0.000000 0
334 191 0.000000 0.000000 0.000000 0
336 191 0.000000 0.000000 0.000000 0
338 191 0.000000 0.000000 0.000000 0
340 191 0.000000 0.000000 0.000000 0
342 191 0.000000 0.000000 0.000000 0
344 191 0.000000 0.000000 0.000000 0
346 191 0.000000 0.000000 0.000000 0
348 191 0.000000 0.000000 0.000000 0
350 191 0.000000 0.000000 0.000000 0
352 191 0.000000 0.000000 0.000000 0
354 191 0.000000 0.000000 0.000000 0
356 191 0.000000 0.000000 0.000000 0
358 191 0.000000 0.000000 0.000000 0
360 191 0.000000 0.000000 0.000000 0
362 191 0.000000 0.000000 0.000000 0
364 191 0.000000 0.000000 0.000000 0
366 191 0.000000 0.000000 0.000000 0
368 191 0.000000 0.000000 0.000000 0
370 191 0.000000 0.000000 0.000000 0
372 191 0.000000 0.000000 0.000000 0
374 191 0.000000 0.000000 0.000000 0
376 191 0.000000 0.000000 0.000000 0
378 191 0.000000 0.000000 0.000000 0
380 191 0.000000 0.000000 0.000000 0
382 191 0.000000 0.000000 0.000000 0
384 191 0.000000 0.000000 0.000000 0
386 191 0.000000 0.000000 0.000000 0
388 191 0.000000 0.000000 0.000000 0
390 191 0.000000 0.000000 0.000000 0
392 191 0.000000 0.000000 0.000000 0
394 191 0.000000 0.000000 0.000000 0
396 191 0.000000 0.000000 0.000000 0
398 191 0.000000 0.000000 0.000000 0
400 191 0.000000 0.000000 0.000000 0
402 191 0.000000 0.000000 0.000000 0
404 191 0.000000 0.000000 0.000000 0
406 191 0.000000 0.000000 0.000000 0
408 191 0.000000 0.000000 0.000000 0
410 191 0.000000 0.000000 0.000000 0
412 191 0.000000 0.000000 0.000000 0
414 191 0.000000 0.000000 0.000000 0
416 191 0.000000 0.000000 0.000000 0
418 191 0.000000 0.000000 0.000000 0
420 191 0.000000 0.000000 0.000000 0
422 191 0.000000 0.000000 0.000000 0
424 191 0.000000 0.000000 0.000000 0
426 191 0.000000 0.000000 0.000000 0
428 191 0.000000 0.000000 0.000000 0
430 191 0.000000 0.000000 0.000000 0
432 191 0.000000 0.000000 0.000000 0
434 191 0.000000 0.000000 0.000000 0
436 191 0.000000 0.000000 0.000000 0
438 191 0.000000 0.000000 0.000000 0
440 191 0.000000 0.000000 0.000000 0
442 191 0.000000 0.000000 0.000000 0
444 191 0.000000 0.000000 0.000000 0
446 191 0.000000 0.000000 0.000000 0
308 193 0.000000 0.000000 0.000000 0
310 193 0.000000 0.000000 0.000000 0
312 193 0.000000 0.000000 0.000000 0
314 193 0.000000 0.000000 0.000000 0
316 193 0.000000 0.000000 0.000000 0
318 193 0.000000 0.000000 0.000000 0
320 193 0.000000 0.000000 0.000000 0
322 193 0.000000 0.000000 0.000000 0
324 193 0.000000 0.000000 0.000000 0
326 193 0.000000 0.000000 0.000000 0
328 193 0.000000 0.000000 0.000000 0
330 193 0.000000 0.000000 0.000000 0
332 193 0.000000 0.000000 0.000000 0
334 193 0.000000 0.000000 0.000000 0
336 193 0.000000 0.000000 0.000000 0
338 193 0.000000 0.000000 0.000000 0
340 193 0.000000 0.000000 0.000000 0
342 193 0.000000 0.000000 0.000000 0
344 193 0.000000 0.000000 0.000000 0
346 193 0.000000 0.000000 0.000000 0
348 193 0.000000 0.000000 0.000000 0
350 193 0.000000 0.000000 0.000000 0
352 193 0.000000 0.000000 0.000000 0
354 193 0.000000 0.000000 0.000000 0
356 193 0.000000 0.000000 0.000000 0
358 193 0.000000 0.000000 0.000000 0
360 193 0.000000 0.000000 0.000000 0
362 193 0.000000 0.000000 0.000000 0
364 193 0.000000 0.000000 0.000000 0
366 193 0.000000 0.000000 0.000000 0
368 193 0.000000 0.000000 0.000000 0
370 193 0.000000 0.000000 0.000000 0
372 193 0.000000 0.000000 0.000000 0
374 193 0.000000 0.000000 0.000000 0
376 193 0.000000 0.000000 0.000000 0
378 193 0.000000 0.000000 0.000000 0
380 193 0.000000 0.000000 0.000000 0
382 193 0.000000 0.000000 0.000000 0
384 193 0.000000 0.000000 0.000000 0
386 193 0.000000 0.000000 0.000000 0
388 193 0.000000 0.000000 0.000000 0
390 193 0.000000 0.000000 0.000000 0
392 193 0.000000 0.000000 0.000000 0
394 193 0.000000 0.000000 0.000000 0
396 193 0.000000 0.000000 0.000000 0
398 193 0.000000 0.000000 0.000000 0
400 193 0.000000 0.000000 0.000000 0
402 193 0.000000 0.000000 0.000000 0
404 193 0.000000 0.000000 0.000000 0
406 193 0.000000 0.000000 0.000000 0
408 193 0.000000 0.000000 0.000000 0
410 193 0.000000 0.000000 0.000000 0
412 193 0.000000 0.000000 0.000000 0
414 193 0.000000 0.000000 0.000000 0
416 193 0.000000 0.000000 0.000000 0
418 193 0.000000 0.000000 0.000000 0
420 193 0.000000 0.000000 0.000000 0
422 193 0.000000 0.000000 0.000000 0
424 193 0.000000 0.000000 0.000000 0
426 193 0.000000 0.000000 0.000000 0
428 193 0.000000 0.000000 0.000000 0
430 193 0.000000 0.000000 0.000000 0
432 193 0.000000 0.000000 0.000000 0
434 193 0.000000 0.000000 0.000000 0
436 193 0.000000 0.000000 0.000000 0
438 193 0.000000 0.000000 0.000000 0
440 193 0.000000 0.000000 0.000000 0
442 193 0.000000 0.000000 0.000000 0
444 193 0.000000 0.000000 0.000000 0
446 193 0.000000 0.000000 0.000000 0
308 195 0.000000 0.000000 0.000000 0
310 195 0.000000 0.000000 0.000000 0
312 195 0.000000 0.000000 0.000000 0
314 195 0.000000 0.000000 0.000000 0
316 195 0.000000 0.000000 0.000000 0
318 195 0.000000 0.000000 0.000000 0
320 195 0.000000 0.000000 0.000000 0
322 195 0.000000 0.000000 0.000000 0
324 195 0.000000 0.000000 0.000000 0
326 195 0.000000 0.000000 0.000000 0
328 195 0.000000 0.000000 0.000000 0
330 195 0.000000 0.000000 0.000000 0
332 195 0.000000 0.000000 0.000000 0
334 195 0.000000 0.000000 0.000000 0
336 195 0.000000 0.000000 0.000000 0
338 195 0.000000 0.000000 0.000000 0
340 195 0.000000 0.000000 0.000000 0
342 195 0.000000 0.000000 0.000000 0
344 195 0.000000 0.000000 0.000000 0
346 195 0.000000 0.000000 0.000000 0
348 195 0.000000 0.000000 0.000000 0
350 195 0.000000 0.000000 0.000000 0
352 195 0.000000 0.000000 0.000000 0
354 195 0.000000 0.000000 0.000000 0
356 195 0.000000 0.000000 0.000000 0
358 195 0.000000 0.000000 0.000000 0
360 195 0.000000 0.000000 0.000000 0
362 195 0.000000 0.000000 0.000000 0
364 195 0.000000 0.000000 0.000000 0
366 195 0.000000 0.000000 0.000000 0
368 195 0.000000 0.000000 0.000000 0
370 195 0.000000 0.000000 0.000000 0
372 195 0.000000 0.000000 0.000000 0
374 195 0.000000 0.000000 0.000000 0
376 195 0.000000 0.000000 0.000000 0
378 195 0.000000 0.000000 0.000000 0
380 195 0.000000 0.000000 0.000000 0
382 195 0.000000 0.000000 0.000000 0
384 195 0.000000 0.000000 0.000000 0
386 195 0.000000 0.000000 0.000000 0
388 195 0.000000 0.000000 0.000000 0
390 195 0.000000 0.000000 0.000000 0
392 195 0.000000 0.000000 0.000000 0
394 195 0.000000 0.000000 0.000000 0
396 195 0.000000 0.000000 0.000000 0
398 195 0.000000 0.000000 0.000000 0
400 195 0.000000 0.000000 0.000000 0
402 195 0.000000 0.000000 0.000000 0
404 195 0.000000 0.000000 0.000000 0
406 195 0.000000 0.000000 0.000000 0
408 195 0.000000 0.000000 0.000000 0
410 195 0.000000 0.000000 0.000000 0
412 195 0.000000 0.000000 0.000000 0
414 195 0.000000 0.000000 0.000000 0
416 195 0.000000 0.000000 0.000000 0
418 195 0.000000 0.000000 0.000000 0
420 195 0.000000 0.000000 0.000000 0
422 195 0.000000 0.000000 0.000000 0
424 195 0.000000 0.000000 0.000000 0
426 195 0.000000 0.000000 0.000000 0
428 195 0.000000 0.000000 0.000000 0
430 195 0.000000 0.000000 0.000000 0
432 195 0.000000 0.000000 0.000000 0
434 195 0.000000 0.000000 0.000000 0
436 195 0.000000 0.000000 0.000000 0
438 195 0.000000 0.000000 0.000000 0
440 195 0.000000 0.000000 0.000000 0
442 195 0.000000 0.000000 0.000000 0
444 195 0.000000 0.000000 0.000000 0
446 195 0.000000 0.000000 0.000000 0
308 197 0.000000 0.000000 0.000000 0
310 197 0.000000 0.000000 0.000000 0
312 197 0.000000 0.000000 0.000000 0
314 197 0.000000 0.000000 0.000000 0
316 197 0.000000 0.000000 0.000000 0
318 197 -0.012013 -0.231182 -0.110598 1
320 197 0.022638 -0.233102 -0.103649 1
322 197 0.073165 -0.258083 -0.103591 1
324 197 0.116822 -0.276456 -0.097532 1
326 197 0.152326 -0.285230 -0.089822 1
328 197 0.187374 -0.284562 -0.081884 1
330 197 0.225578 -0.277015 -0.077351 1
332 197 0.264666 -0.263729 -0.087128 1
334 197 0.299690 -0.248145 -0.115339 1
336 197 0.333705 -0.230724 -0.140570 1
338 197 0.366870 -0.210539 -0.151284 1
340 197 0.393222 -0.186025 -0.149532 1
342 197 0.407612 -0.154127 -0.137474 1
344 197 0.418703 -0.116624 -0.120508 1
346 197 0.435421 -0.079268 -0.105410 1
348 197 0.464306 -0.043878 -0.096329 1
350 197 0.497058 -0.011630 -0.086620 1
352 197 0.518791 0.017744 -0.077717 1
354 197 0.521312 0.045991 -0.079508 1
356 197 0.508137 0.074256 -0.098939 1
358 197 0.487147 0.107443 -0.122628 1
360 197 0.472495 0.144004 -0.132475 1
362 197 0.467591 0.182814 -0.125296 1
364 197 0.463216 0.220769 -0.108176 1
366 197 0.454115 0.251772 -0.086366 1
368 197 0.440321 0.274948 -0.066274 1
370 197 0.426803 0.296115 -0.050011 1
372 197 0.406846 0.313569 -0.043445 1
374 197 0.382069 0.328355 -0.045504 1
376 197 0.355463 0.340513 -0.053638 1
378 197 0.326482 0.348431 -0.063102 1
380 197 0.298972 0.354110 -0.073008 1
382 197 0.278673 0.356488 -0.078354 1
384 197 0.261923 0.357556 -0.080349 1
386 197 0.245870 0.360500 -0.080492 1
388 197 0.233603 0.362078 -0.078401 1
390 197 0.224615 0.361897 -0.074784 1
392 197 0.220415 0.360200 -0.072131 1
394 197 0.220350 0.356668 -0.068482 1
396 197 0.223024 0.354089 -0.063085 1
398 197 0.228878 0.357292 -0.062074 1
400 197 0.236478 0.364530 -0.066525 1
402 197 0.244417 0.371540 -0.072122 1
404 197 0.271323 0.369591 -0.063466 1
406 197 0.000000 0.000000 0.000000 0
408 197 0.000000 0.000000 0.000000 0
410 197 0.000000 0.000000 0.000000 0
412 197 0.000000 0.000000 0.000000 0
414 197 0.000000 0.000000 0.000000 0
416 197 0.000000 0.000000 0.000000 0
418 197 0.000000 0.000000 0.000000 0
420 197 0.000000 0.000000 0.000000 0
422 197 0.000000 0.000000 0.000000 0
424 197 0.000000 0.000000 0.000000 0
426 197 0.000000 0.000000 0.000000 0
428 197 0.000000 0.000000 0.000000 0
430 197 0.000000 0.000000 0.000000 0
432 197 0.000000 0.000000 0.000000 0
434 197 0.000000 0.000000 0.000000 0
436 197 0.000000 0.000000 0.000000 0
438 197 0.000000 0.000000 0.000000 0
440 197 0.000000 0.000000 0.000000 0
442 197 0.000000 0.000000 0.000000 0
444 197 0.000000 0.000000 0.000000 0
446 197 0.000000 0.000000 0.000000 0
308 199 0.000000 0.000000 0.000000 0
310 199 0.000000 0.000000 0.000000 0
312 199 0.000000 0.000000 0.000000 0
314 199 0.000000 0.000000 0.000000 0
316 199 -0.075411 -0.227476 -0.121334 1
318 199 -0.038646 -0.250717 -0.119577 1
320 199 0.013730 -0.290101 -0.133191 1
322 199 0.065271 -0.320490 -0.139330 1
324 199 0.106314 -0.345748 -0.138839 1
326 199 0.138368 -0.359992 -0.139295 1
328 199 0.170759 -0.363054 -0.140866 1
330 199 0.211606 -0.353975 -0.139931 1
332 199 0.260251 -0.334778 -0.145555 1
334 199 0.313190 -0.310096 -0.162193 1
336 199 0.364193 -0.285648 -0.176974 1
338 199 0.414514 -0.260029 -0.180471 1
340 199 0.452669 -0.232276 -0.178012 1
342 199 0.477288 -0.196494 -0.170776 1
344 199 0.494388 -0.153211 -0.161814 1
346 199 0.511861 -0.108711 -0.153731 1
348 199 0.534777 -0.065078 -0.145343 1
350 199 0.559531 -0.026360 -0.130476 1
352 199 0.572923 0.009801 -0.111274 1
354 199 0.572151 0.044260 -0.102837 1
356 199 0.559701 0.080007 -0.111932 1
358 199 0.542190 0.121273 -0.128602 1
360 199 0.530337 0.164721 -0.135108 1
362 199 0.524551 0.207963 -0.125733 1
364 199 0.514823 0.247395 -0.108119 1
366 199 0.495243 0.278802 -0.089155 1
368 199 0.471080 0.302304 -0.073657 1
370 199 0.448070 0.323977 -0.061467 1
372 199 0.421138 0.342188 -0.056643 1
374 199 0.391637 0.357909 -0.058987 1
376 199 0.361258 0.371664 -0.065836 1
378 199 0.329961 0.380568 -0.072004 1
380 199 0.300601 0.386078 -0.074540 1
382 199 0.279532 0.386665 -0.072101 1
384 199 0.263035 0.384656 -0.068791 1
386 199 0.248090 0.383324 -0.067936 1
388 199 0.237022 0.380558 -0.065541 1
390 199 0.229459 0.374766 -0.059887 1
392 199 0.226579 0.368113 -0.054781 1
394 199 0.228446 0.359235 -0.049576 1
396 199 0.234390 0.352287 -0.044376 1
398 199 0.245658 0.351641 -0.042471 1
400 199 0.262073 0.355357 -0.044169 1
402 199 0.280380 0.360278 -0.048620 1
404 199 0.301593 0.363364 -0.057222 1
406 199 0.326853 0.359211 -0.062241 1
408 199 0.000000 0.000000 0.000000 0
410 199 0.000000 0.000000 0.000000 0
412 199 0.000000 0.000000 0.000000 0
414 199 0.000000 0.000000 0.000000 0
416 199 0.000000 0.000000 0.000000 0
418 199 0.000000 0.000000 0.000000 0
420 199 0.000000 0.000000 0.000000 0
422 199 0.000000 0.000000 0.000000 0
424 199 0.000000 0.000000 0.000000 0
426 199 0.000000 0.000000 0.000000 0
428 199 0.000000 0.000000 0.000000 0
430 199 0.000000 0.000000 0.000000 0
432 199 0.000000 0.000000 0.000000 0
434 199 0.000000 0.000000 0.000000 0
436 199 0.000000 0.000000 0.000000 0
438 199 0.000000 0.000000 0.000000 0
440 199 0.000000 0.000000 0.000000 0
442 199 0.000000 0.000000 0.000000 0
444 199 0.000000 0.000000 0.000000 0
446 199 0.000000 0.000000 0.000000 0
308 201 0.000000 0.000000 0.000000 0
310 201 0.000000 0.000000 0.000000 0
312 201 0.000000 0.000000 0.000000 0
314 201 0.000000 0.000000 0.000000 0
316 201 -0.087603 -0.259293 -0.108178 1
318 201 -0.056010 -0.300916 -0.134699 1
320 201 0.003894 -0.346973 -0.174349 1
322 201 0.063152 -0.382841 -0.181046 1
324 201 0.108985 -0.412565 -0.167808 1
326 201 0.143309 -0.432256 -0.161162 1
328 201 0.174114 -0.438426 -0.164685 1
330 201 0.212157 -0.429075 -0.170690 1
332 201 0.264152 -0.406041 -0.180079 1
334 201 0.326038 -0.375297 -0.196161 1
336 201 0.389061 -0.343367 -0.208106 1
338 201 0.448154 -0.311938 -0.210049 1
340 201 0.495731 -0.278804 -0.205208 1
342 201 0.529347 -0.239086 -0.195178 1
344 201 0.556056 -0.191137 -0.181966 1
346 201 0.578121 -0.140288 -0.172816 1
348 201 0.599184 -0.089390 -0.164250 1
350 201 0.618276 -0.042812 -0.148163 1
352 201 0.627564 -0.000393 -0.124745 1
354 201 0.625598 0.041268 -0.107848 1
356 201 0.614895 0.083965 -0.107268 1
358 201 0.600467 0.133319 -0.114988 1
360 201 0.590433 0.184118 -0.117727 1
362 201 0.582768 0.231472 -0.109064 1
364 201 0.566877 0.273092 -0.095941 1
366 201 0.539442 0.305778 -0.084262 1
368 201 0.505602 0.331418 -0.077067 1
370 201 0.474215 0.355489 -0.069458 1
372 201 0.440382 0.376788 -0.064847 1
374 201 0.405435 0.395418 -0.065402 1
376 201 0.371177 0.411565 -0.069267 1
378 201 0.336364 0.421403 -0.070813 1
380 201 0.304698 0.425906 -0.067142 1
382 201 0.282045 0.422867 -0.056735 1
384 201 0.265567 0.416042 -0.048267 1
386 201 0.251388 0.409119 -0.047368 1
388 201 0.241015 0.401001 -0.046687 1
390 201 0.233476 0.390472 -0.042221 1
392 201 0.230906 0.378071 -0.039342 1
394 201 0.234122 0.364296 -0.038595 1
396 201 0.243988 0.352061 -0.040581 1
398 201 0.261464 0.346539 -0.041367 1
400 201 0.287685 0.345079 -0.040481 1
402 201 0.319217 0.345237 -0.042219 1
404 201 0.354393 0.343757 -0.050807 1
406 201 0.388562 0.337023 -0.062627 1
408 201 0.436751 0.312336 -0.061237 1
410 201 0.000000 0.000000 0.000000 0
412 201 0.000000 0.000000 0.000000 0
414 201 0.000000 0.000000 0.000000 0
416 201 0.000000 0.000000 0.000000 0
418 201 0.000000 0.000000 0.000000 0
420 201 0.000000 0.000000 0.000000 0
422 201 0.000000 0.000000 0.000000 0
424 201 0.000000 0.000000 0.000000 0
426 201 0.000000 0.000000 0.000000 0
428 201 0.000000 0.000000 0.000000 0
430 201 0.000000 0.000000 0.000000 0
432 201 0.000000 0.000000 0.000000 0
434 201 0.000000 0.000000 0.000000 0
436 201 0.000000 0.000000 0.000000 0
438 201 0.000000 0.000000 0.000000 0
440 201 0.000000 0.000000 0.000000 0
442 201 0.000000 0.000000 0.000000 0
444 201 0.000000 0.000000 0.000000 0
446 201 0.000000 0.000000 0.000000 0
308 203 0.000000 0.000000 0.000000 0
310 203 0.000000 0.000000 0.000000 0
312 203 0.000000 0.000000 0.000000 0
314 203 0.000000 0.000000 0.000000 0
316 203 -0.068135 -0.298143 -0.072861 1
318 203 -0.040143 -0.346629 -0.129545 1
320 203 0.030204 -0.399295 -0.196773 1
322 203 0.102767 -0.438524 -0.205995 1
324 203 0.160306 -0.470658 -0.174386 1
326 203 0.200735 -0.491707 -0.158429 1
328 203 0.230098 -0.498805 -0.161487 1
330 203 0.259558 -0.489832 -0.172543 1
332 203 0.302122 -0.466728 -0.187794 1
334 203 0.357894 -0.434195 -0.208116 1
336 203 0.416927 -0.397468 -0.225290 1
338 203 0.472759 -0.358515 -0.233818 1
340 203 0.520472 -0.319111 -0.231340 1
342 203 0.560879 -0.273740 -0.215922 1
344 203 0.597642 -0.222615 -0.190956 1
346 203 0.628463 -0.168113 -0.169761 1
348 203 0.651461 -0.111893 -0.158140 1
350 203 0.669350 -0.059380 -0.144790 1
352 203 0.677622 -0.010433 -0.122642 1
354 203 0.676757 0.037063 -0.102233 1
356 203 0.668975 0.087169 -0.092592 1
358 203 0.656856 0.143792 -0.091907 1
360 203 0.647052 0.201729 -0.091063 1
362 203 0.635771 0.253357 -0.085813 1
364 203 0.614724 0.297186 -0.078866 1
366 203 0.581180 0.332140 -0.075091 1
368 203 0.542157 0.360859 -0.072399 1
370 203 0.504318 0.389732 -0.066212 1
372 203 0.465798 0.415680 -0.058696 1
374 203 0.427237 0.438289 -0.054261 1
376 203 0.389993 0.456434 -0.052058 1
378 203 0.352177 0.465937 -0.048933 1
380 203 0.316535 0.468090 -0.041287 1
382 203 0.290538 0.461264 -0.028051 1
384 203 0.271715 0.448372 -0.016249 1
386 203 0.257009 0.435158 -0.014314 1
388 203 0.246277 0.420958 -0.014556 1
390 203 0.237228 0.404718 -0.012827 1
392 203 0.233406 0.387197 -0.015525 1
394 203 0.237589 0.367634 -0.026133 1
396 203 0.251624 0.350655 -0.037687 1
398 203 0.277093 0.338803 -0.043466 1
400 203 0.314594 0.328732 -0.038448 1
402 203 0.359998 0.318611 -0.032372 1
404 203 0.411445 0.305536 -0.034262 1
406 203 0.458480 0.289045 -0.041768 1
408 203 0.475438 0.277739 -0.039569 1
410 203 0.000000 0.000000 0.000000 0
412 203 0.000000 0.000000 0.000000 0
414 203 0.000000 0.000000 0.000000 0
416 203 0.000000 0.000000 0.000000 0
418 203 0.000000 0.000000 0.000000 0
420 203 0.000000 0.000000 0.000000 0
422 203 0.000000 0.000000 0.000000 0
424 203 0.000000 0.000000 0.000000 0
426 203 0.000000 0.000000 0.000000 0
428 203 0.000000 0.000000 0.000000 0
430 203 0.000000 0.000000 0.000000 0
432 203 0.000000 0.000000 0.000000 0
434 203 0.000000 0.000000 0.000000 0
436 203 0.000000 0.000000 0.000000 0
438 203 0.000000 0.000000 0.000000 0
440 203 0.000000 0.000000 0.000000 0
442 203 0.000000 0.000000 0.000000 0
444 203 0.000000 0.000000 0.000000 0
446 203 0.000000 0.000000 0.000000 0
308 205 0.000000 0.000000 0.000000 0
310 205 0.000000 0.000000 0.000000 0
312 205 0.000000 0.000000 0.000000 0
314 205 0.000000 0.000000 0.000000 0
316 205 0.031718 -0.332069 -0.008113 1
318 205 0.061385 -0.389211 -0.074136 1
320 205 0.146818 -0.449909 -0.161707 1
322 205 0.233487 -0.491114 -0.180281 1
324 205 0.297098 -0.520924 -0.152697 1
326 205 0.337507 -0.537020 -0.143943 1
328 205 0.360718 -0.540446 -0.152683 1
330 205 0.373757 -0.532116 -0.165996 1
332 205 0.398384 -0.512580 -0.181266 1
334 205 0.432926 -0.484242 -0.201837 1
336 205 0.474475 -0.446768 -0.225119 1
338 205 0.516337 -0.402972 -0.244184 1
340 205 0.555532 -0.357100 -0.250742 1
342 205 0.595608 -0.306738 -0.236176 1
344 205 0.637968 -0.252066 -0.201099 1
346 205 0.674256 -0.195213 -0.167377 1
348 205 0.699319 -0.135007 -0.151512 1
350 205 0.717948 -0.076903 -0.142557 1
352 205 0.727445 -0.021780 -0.123904 1
354 205 0.729486 0.033326 -0.100764 1
356 205 0.724616 0.090578 -0.084270 1
358 205 0.713876 0.155932 -0.075955 1
360 205 0.702231 0.220690 -0.074283 1
362 205 0.685676 0.277453 -0.074143 1
364 205 0.659315 0.325006 -0.072121 1
366 205 0.622285 0.363603 -0.069374 1
368 205 0.579860 0.398010 -0.064044 1
370 205 0.538427 0.432747 -0.054012 1
372 205 0.497327 0.464155 -0.039839 1
374 205 0.458038 0.488981 -0.027576 1
376 205 0.420209 0.505782 -0.016365 1
378 205 0.380078 0.511726 -0.007442 1
380 205 0.340250 0.510149 0.000507 1
382 205 0.307722 0.498397 0.010517 1
384 205 0.284052 0.480307 0.022011 1
386 205 0.266771 0.459967 0.027662 1
388 205 0.254934 0.438583 0.030821 1
390 205 0.244219 0.415177 0.033347 1
392 205 0.239458 0.390600 0.027133 1
394 205 0.244868 0.365264 0.012096 1
396 205 0.263610 0.341599 -0.001134 1
398 205 0.295729 0.322254 -0.006210 1
400 205 0.343783 0.298241 0.005006 1
402 205 0.401975 0.271529 0.020557 1
404 205 0.466297 0.242100 0.027209 1
406 205 0.523216 0.212785 0.023634 1
408 205 0.542153 0.201902 0.023373 1
410 205 0.000000 0.000000 0.000000 0
412 205 0.000000 0.000000 0.000000 0
414 205 0.000000 0.000000 0.000000 0
416 205 0.000000 0.000000 0.000000 0
418 205 0.000000 0.000000 0.000000 0
420 205 0.000000 0.000000 0.000000 0
422 205 0.000000 0.000000 0.000000 0
424 205 0.000000 0.000000 0.000000 0
426 205 0.000000 0.000000 0.000000 0
428 205 0.000000 0.000000 0.000000 0
430 205 0.000000 0.000000 0.000000 0
432 205 0.000000 0.000000 0.000000 0
434 205 0.000000 0.000000 0.000000 0
436 205 0.000000 0.000000 0.000000 0
438 205 0.000000 0.000000 0.000000 0
440 205 0.000000 0.000000 0.000000 0
442 205 0.000000 0.000000 0.000000 0
444 205 0.000000 0.000000 0.000000 0
446 205 0.000000 0.000000 0.000000 0
308 207 0.000000 0.000000 0.000000 0
310 207 0.000000 0.000000 0.000000 0
312 207 0.000000 0.000000 0.000000 0
314 207 0.000000 0.000000 0.000000 0
316 207 0.214999 -0.362593 0.058381 1
318 207 0.249824 -0.428656 0.000211 1
320 207 0.350806 -0.496765 -0.093005 1
322 207 0.448130 -0.539011 -0.127719 1
324 207 0.507602 -0.562793 -0.121741 1
326 207 0.538594 -0.570529 -0.131081 1
328 207 0.549782 -0.568103 -0.148206 1
330 207 0.548217 -0.560567 -0.160526 1
332 207 0.549455 -0.546423 -0.172269 1
334 207 0.560007 -0.523680 -0.191017 1
336 207 0.577311 -0.489209 -0.216650 1
338 207 0.600668 -0.443673 -0.244180 1
340 207 0.626588 -0.394584 -0.259731 1
342 207 0.659105 -0.340403 -0.250625 1
344 207 0.698470 -0.283207 -0.214386 1
346 207 0.733133 -0.223701 -0.174522 1
348 207 0.756456 -0.159869 -0.158171 1
350 207 0.774332 -0.095855 -0.154826 1
352 207 0.784470 -0.033210 -0.141031 1
354 207 0.788413 0.030029 -0.116796 1
356 207 0.786005 0.096609 -0.092899 1
358 207 0.775516 0.169455 -0.077667 1
360 207 0.761213 0.241491 -0.073230 1
362 207 0.739787 0.303550 -0.074905 1
364 207 0.708223 0.356547 -0.074100 1
366 207 0.667715 0.401151 -0.068339 1
368 207 0.622769 0.442147 -0.058255 1
370 207 0.577747 0.484615 -0.043052 1
372 207 0.534873 0.520013 -0.023927 1
374 207 0.495438 0.545382 -0.003585 1
376 207 0.457516 0.558736 0.016492 1
378 207 0.415958 0.559311 0.031888 1
380 207 0.372184 0.552335 0.039403 1
382 207 0.334373 0.535828 0.044121 1
384 207 0.304449 0.512252 0.052020 1
386 207 0.284774 0.486487 0.062635 1
388 207 0.272580 0.457092 0.076155 1
390 207 0.262428 0.425496 0.087558 1
392 207 0.259623 0.393031 0.087613 1
394 207 0.268842 0.360489 0.078618 1
396 207 0.291696 0.330440 0.072864 1
398 207 0.328782 0.301235 0.075310 1
400 207 0.381846 0.264175 0.091482 1
402 207 0.447280 0.219848 0.110616 1
404 207 0.518938 0.175564 0.117187 1
406 207 0.580102 0.137598 0.108833 1
408 207 0.602428 0.126994 0.103375 1
410 207 0.000000 0.000000 0.000000 0
412 207 0.000000 0.000000 0.000000 0
414 207 0.000000 0.000000 0.000000 0
416 207 0.000000 0.000000 0.000000 0
418 207 0.000000 0.000000 0.000000 0
420 207 0.000000 0.000000 0.000000 0
422 207 0.000000 0.000000 0.000000 0
424 207 0.000000 0.000000 0.000000 0
426 207 0.000000 0.000000 0.000000 0
428 207 0.000000 0.000000 0.000000 0
430 207 0.000000 0.000000 0.000000 0
432 207 0.000000 0.000000 0.000000 0
434 207 0.000000 0.000000 0.000000 0
436 207 0.000000 0.000000 0.000000 0
438 207 0.000000 0.000000 0.000000 0
440 207 0.000000 0.000000 0.000000 0
442 207 0.000000 0.000000 0.000000 0
444 207 0.000000 0.000000 0.000000 0
446 207 0.000000 0.000000 0.000000 0
308 209 0.000000 0.000000 0.000000 0
310 209 0.000000 0.000000 0.000000 0
312 209 0.000000 0.000000 0.000000 0
314 209 0.000000 0.000000 0.000000 0
316 209 0.513314 -0.398203 0.117106 1
318 209 0.562993 -0.467995 0.070421 1
320 209 0.674381 -0.535725 -0.022156 1
322 209 0.766382 -0.571560 -0.077691 1
324 209 0.806078 -0.584585 -0.100083 1
326 209 0.817733 -0.584466 -0.122147 1
328 209 0.813422 -0.579407 -0.140307 1
330 209 0.795396 -0.574541 -0.149880 1
332 209 0.776736 -0.564005 -0.162061 1
334 209 0.757394 -0.544803 -0.183604 1
336 209 0.750298 -0.512220 -0.209613 1
338 209 0.751178 -0.467374 -0.238126 1
340 209 0.759464 -0.419018 -0.255096 1
342 209 0.778087 -0.365372 -0.247870 1
344 209 0.803449 -0.308149 -0.216015 1
346 209 0.826397 -0.247564 -0.181544 1
348 209 0.838015 -0.180678 -0.173152 1
350 209 0.849522 -0.111467 -0.177331 1
352 209 0.855302 -0.040654 -0.170453 1
354 209 0.857291 0.032223 -0.148257 1
356 209 0.854078 0.107550 -0.121000 1
358 209 0.842262 0.187352 -0.098368 1
360 209 0.826104 0.263875 -0.087623 1
362 209 0.801608 0.331608 -0.082724 1
364 209 0.766606 0.391028 -0.076972 1
366 209 0.723057 0.443161 -0.066009 1
368 209 0.675508 0.491474 -0.052578 1
370 209 0.627750 0.539674 -0.035821 1
372 209 0.583556 0.577518 -0.014223 1
374 209 0.544234 0.602121 0.010409 1
376 209 0.506713 0.611893 0.036877 1
378 209 0.465382 0.607560 0.056680 1
380 209 0.421425 0.594992 0.064984 1
382 209 0.383499 0.572653 0.068811 1
384 209 0.353297 0.544692 0.078533 1
386 209 0.334394 0.513919 0.100767 1
388 209 0.323929 0.477863 0.129845 1
390 209 0.317614 0.437130 0.160201 1
392 209 0.320955 0.396465 0.175324 1
394 209 0.337777 0.356648 0.179985 1
396 209 0.367402 0.319059 0.186917 1
398 209 0.407729 0.281843 0.197959 1
400 209 0.460542 0.232512 0.216308 1
402 209 0.523588 0.177549 0.228493 1
404 209 0.590977 0.124926 0.219845 1
406 209 0.647795 0.083549 0.196221 1
408 209 0.670356 0.071471 0.185762 1
410 209 0.000000 0.000000 0.000000 0
412 209 0.000000 0.000000 0.000000 0
414 209 0.000000 0.000000 0.000000 0
416 209 0.000000 0.000000 0.000000 0
418 209 0.000000 0.000000 0.000000 0
420 209 0.000000 0.000000 0.000000 0
422 209 0.000000 0.000000 0.000000 0
424 209 0.000000 0.000000 0.000000 0
426 209 0.000000 0.000000 0.000000 0
428 209 0.000000 0.000000 0.000000 0
430 209 0.000000 0.000000 0.000000 0
432 209 0.000000 0.000000 0.000000 0
434 209 0.000000 0.000000 0.000000 0
436 209 0.000000 0.000000 0.000000 0
438 209 0.000000 0.000000 0.000000 0
440 209 0.000000 0.000000 0.000000 0
442 209 0.000000 0.000000 0.000000 0
444 209 0.000000 0.000000 0.000000 0
446 209 0.000000 0.000000 0.000000 0
308 211 0.000000 0.000000 0.000000 0
310 211 0.000000 0.000000 0.000000 0
312 211 0.000000 0.000000 0.000000 0
314 211 0.000000 0.000000 0.000000 0
316 211 0.883542 -0.447173 0.160418 1
318 211 0.947332 -0.515395 0.124189 1
320 211 1.051079 -0.574964 0.036786 1
322 211 1.120772 -0.598396 -0.031193 1
324 211 1.138240 -0.601616 -0.065429 1
326 211 1.131607 -0.594711 -0.084625 1
328 211 1.114868 -0.587709 -0.098225 1
330 211 1.086753 -0.583315 -0.110456 1
332 211 1.050687 -0.573305 -0.134130 1
334 211 1.009209 -0.552354 -0.171723 1
336 211 0.974250 -0.517662 -0.208121 1
338 211 0.953797 -0.472475 -0.237255 1
340 211 0.942234 -0.426720 -0.251203 1
342 211 0.943443 -0.376901 -0.242465 1
344 211 0.950174 -0.322986 -0.216870 1
346 211 0.951137 -0.263983 -0.194163 1
348 211 0.944460 -0.196890 -0.193252 1
350 211 0.939455 -0.124327 -0.202445 1
352 211 0.934694 -0.047009 -0.200319 1
354 211 0.928867 0.035043 -0.182987 1
356 211 0.921862 0.118989 -0.156320 1
358 211 0.909214 0.203655 -0.128529 1
360 211 0.893584 0.284397 -0.107813 1
362 211 0.869864 0.357405 -0.092773 1
364 211 0.833929 0.425070 -0.078195 1
366 211 0.788382 0.484855 -0.062630 1
368 211 0.738637 0.539241 -0.047318 1
370 211 0.688318 0.591286 -0.030149 1
372 211 0.643335 0.629604 -0.007442 1
374 211 0.605065 0.653446 0.019433 1
376 211 0.569934 0.661423 0.048472 1
378 211 0.533269 0.653198 0.072344 1
380 211 0.494846 0.635624 0.086072 1
382 211 0.464464 0.607922 0.100825 1
384 211 0.440560 0.575946 0.123475 1
386 211 0.424704 0.542463 0.158751 1
388 211 0.416041 0.500528 0.203594 1
390 211 0.412665 0.452684 0.248444 1
392 211 0.422891 0.403426 0.278497 1
394 211 0.448514 0.355646 0.296244 1
396 211 0.485637 0.309743 0.314420 1
398 211 0.529529 0.263504 0.334468 1
400 211 0.579594 0.206366 0.353521 1
402 211 0.634942 0.144228 0.354334 1
404 211 0.693187 0.087910 0.327983 1
406 211 0.741868 0.043473 0.285856 1
408 211 0.766138 0.029837 0.266862 1
410 211 0.000000 0.000000 0.000000 0
412 211 0.000000 0.000000 0.000000 0
414 211 0.000000 0.000000 0.000000 0
416 211 0.000000 0.000000 0.000000 0
418 211 0.000000 0.000000 0.000000 0
420 211 0.000000 0.000000 0.000000 0
422 211 0.000000 0.000000 0.000000 0
424 211 0.000000 0.000000 0.000000 0
426 211 0.000000 0.000000 0.000000 0
428 211 0.000000 0.000000 0.000000 0
430 211 0.000000 0.000000 0.000000 0
432 211 0.000000 0.000000 0.000000 0
434 211 0.000000 0.000000 0.000000 0
436 211 0.000000 0.000000 0.000000 0
438 211 0.000000 0.000000 0.000000 0
440 211 0.000000 0.000000 0.000000 0
442 211 0.000000 0.000000 0.000000 0
444 211 0.000000 0.000000 0.000000 0
446 211 0.000000 0.000000 0.000000 0
308 213 0.000000 0.000000 0.000000 0
310 213 0.000000 0.000000 0.000000 0
312 213 0.000000 0.000000 0.000000 0
314 213 0.000000 0.000000 0.000000 0
316 213 1.283726 -0.497358 0.168885 1
318 213 1.347558 -0.559364 0.137452 1
320 213 1.426936 -0.606599 0.065893 1
322 213 1.470210 -0.620469 0.007905 1
324 213 1.471663 -0.616370 -0.005276 1
326 213 1.461848 -0.604637 -0.002119 1
328 213 1.444822 -0.592811 -0.005669 1
330 213 1.415789 -0.583301 -0.026252 1
332 213 1.374250 -0.567141 -0.068899 1
334 213 1.318394 -0.537391 -0.134874 1
336 213 1.265381 -0.495823 -0.192012 1
338 213 1.223389 -0.447371 -0.231465 1
340 213 1.194908 -0.404140 -0.246629 1
342 213 1.177355 -0.360607 -0.239659 1
344 213 1.160905 -0.313822 -0.223609 1
346 213 1.135842 -0.260567 -0.212986 1
348 213 1.100608 -0.197606 -0.217074 1
350 213 1.073515 -0.125645 -0.225337 1
352 213 1.047315 -0.044511 -0.223466 1
354 213 1.027924 0.043468 -0.209450 1
356 213 1.013076 0.132927 -0.184900 1