TITLE = "B00026"
VARIABLES = "X", "Y", "Vx", "Vy", "Vz", "flag"
ZONE T="B00026", I=70, J=78
308 191 0.000000 0.000000 0.000000 0
310 191 0.000000 0.000000 0.000000 0
312 191 0.000000 0.000000 0.000000 0
314 191 0.000000 0.000000 0.000000 0
316 191 0.000000 0.000000 0.000000 0
318 191 0.000000 0.000000 0.000000 0
320 191 0.000000 0.000000 0.000000 0
322 191 0.000000 0.000000 0.000000 0
324 191 0.000000 0.000000 0.000000 0
326 191 0.000000 0.000000 0.000000 0
328 191 0.000000 0.000000 0.000000 0
330 191 0.000000 0.000000 0.000000 0
332 191 0.000000 0.000000 0.000000 0
334 191 0.000000 0.000000 0.000000 0
336 191 0.000000 0.000000 0.000000 0
338 191 0.000000 0.000000 0.000000 0
340 191 0.000000 0.000000 0.000000 0
342 191 0.000000 0.000000 0.000000 0
344 191 0.000000 0.000000 0.000000 0
346 191 0.000000 0.000000 0.000000 0
348 191 0.000000 0.000000 0.000000 0
350 191 0.000000 0.000000 0.000000 0
352 191 0.000000 0.000000 0.000000 0
354 191 0.000000 0.000000 0.000000 0
356 191 0.000000 0.000000 0.000000 0
358 191 0.000000 0.000000 0.000000 0
360 191 0.000000 0.000000 0.000000 0
362 191 0.000000 0.000000 0.000000 0
364 191 0.000000 0.000000 0.000000 0
366 191 0.000000 0.000000 0.000000 0
368 191 0.000000 0.000000 0.000000 0
370 191 0.000000 0.000000 0.000000 0
372 191 0.000000 0.000000 0.000000 0
374 191 0.000000 0.000000 0.000000 0
376 191 0.000000 0.000000 0.000000 0
378 191 0.000000 0.000000 0.000000 0
380 191 0.000000 0.000000 0.000000 0
382 191 0.000000 0.000000 0.000000 0
384 191 0.000000 0.000000 0.000000 0
386 191 0.000000 0.000000 0.000000 0
388 191 0.000000 0.000000 0.000000 0
390 191 0.000000 0.000000 0.000000 0
392 191 0.000000 0.000000 0.000000 0
394 191 0.000000 0.000000 0.000000 0
396 191 0.000000 0.000000 0.000000 0
398 191 0.000000 0.000000 0.000000 0
400 191 0.000000 0.000000 0.000000 0
402 191 0.000000 0.000000 0.000000 0
404 191 0.000000 0.000000 0.000000 0
406 191 0.000000 0.000000 0.000000 0
408 191 0.000000 0.000000 0.000000 0
410 191 0.000000 0.000000 0.000000 0
412 191 0.000000 0.000000 0.000000 0
414 191 0.000000 0.000000 0.000000 0
416 191 0.000000 0.000000 0.000000 0
418 191 0.000000 0.000000 0.000000 0
420 191 0.000000 0.000000 0.000000 0
422 191 0.000000 0.000000 0.000000 0
424 191 0.000000 0.000000 0.000000 0
426 191 0.000000 0.000000 0.000000 0
428 191 0.000000 0.000000 0.000000 0
430 191 0.000000 0.000000 0.000000 0
432 191 0.000000 0.000000 0.000000 0
434 191 0.000000 0.000000 0.000000 0
436 191 0.000000 0.000000 0.000000 0
438 191 0.000000 0.000000 0.000000 0
440 191 0.000000 0.000000 0.000000 0
442 191 0.000000 0.000000 0.000000 0
444 191 0.000000 0.000000 0.000000 0
446 191 0.000000 0.000000 0.000000 0
308 193 0.000000 0.000000 0.000000 0
310 193 0.000000 0.000000 0.000000 0
312 193 0.000000 0.000000 0.000000 0
314 193 0.000000 0.000000 0.000000 0
316 193 0.000000 0.000000 0.000000 0
318 193 0.000000 0.000000 0.000000 0
320 193 0.000000 0.000000 0.000000 0
322 193 0.000000 0.000000 0.000000 0
324 193 0.000000 0.000000 0.000000 0
326 193 0.000000 0.000000 0.000000 0
328 193 0.000000 0.000000 0.000000 0
330 193 0.000000 0.000000 0.000000 0
332 193 0.000000 0.000000 0.000000 0
334 193 0.000000 0.000000 0.000000 0
336 193 0.000000 0.000000 0.000000 0
338 193 0.000000 0.000000 0.000000 0
340 193 0.000000 0.000000 0.000000 0
342 193 0.000000 0.000000 0.000000 0
344 193 0.000000 0.000000 0.000000 0
346 193 0.000000 0.000000 0.000000 0
348 193 0.000000 0.000000 0.000000 0
350 193 0.000000 0.000000 0.000000 0
352 193 0.000000 0.000000 0.000000 0
354 193 0.000000 0.000000 0.000000 0
356 193 0.000000 0.000000 0.000000 0
358 193 0.000000 0.000000 0.000000 0
360 193 0.000000 0.000000 0.000000 0
362 193 0.000000 0.000000 0.000000 0
364 193 0.000000 0.000000 0.000000 0
366 193 0.000000 0.000000 0.000000 0
368 193 0.000000 0.000000 0.000000 0
370 193 0.000000 0.000000 0.000000 0
372 193 0.000000 0.000000 0.000000 0
374 193 0.000000 0.000000 0.000000 0
376 193 0.000000 0.000000 0.000000 0
378 193 0.000000 0.000000 0.000000 0
380 193 0.000000 0.000000 0.000000 0
382 193 0.000000 0.000000 0.000000 0
384 193 0.000000 0.000000 0.000000 0
386 193 0.000000 0.000000 0.000000 0
388 193 0.000000 0.000000 0.000000 0
390 193 0.000000 0.000000 0.000000 0
392 193 0.000000 0.000000 0.000000 0
394 193 0.000000 0.000000 0.000000 0
396 193 0.000000 0.000000 0.000000 0
398 193 0.000000 0.000000 0.000000 0
400 193 0.000000 0.000000 0.000000 0
402 193 0.000000 0.000000 0.000000 0
404 193 0.000000 0.000000 0.000000 0
406 193 0.000000 0.000000 0.000000 0
408 193 0.000000 0.000000 0.000000 0
410 193 0.000000 0.000000 0.000000 0
412 193 0.000000 0.000000 0.000000 0
414 193 0.000000 0.000000 0.000000 0
416 193 0.000000 0.000000 0.000000 0
418 193 0.000000 0.000000 0.000000 0
420 193 0.000000 0.000000 0.000000 0
422 193 0.000000 0.000000 0.000000 0
424 193 0.000000 0.000000 0.000000 0
426 193 0.000000 0.000000 0.000000 0
428 193 0.000000 0.000000 0.000000 0
430 193 0.000000 0.000000 0.000000 0
432 193 0.000000 0.000000 0.000000 0
434 193 0.000000 0.000000 0.000000 0
436 193 0.000000 0.000000 0.000000 0
438 193 0.000000 0.000000 0.000000 0
440 193 0.000000 0.000000 0.000000 0
442 193 0.000000 0.000000 0.000000 0
444 193 0.000000 0.000000 0.000000 0
446 193 0.000000 0.000000 0.000000 0
308 195 0.000000 0.000000 0.000000 0
310 195 0.000000 0.000000 0.000000 0
312 195 0.000000 0.000000 0.000000 0
314 195 0.000000 0.000000 0.000000 0
316 195 0.000000 0.000000 0.000000 0
318 195 0.000000 0.000000 0.000000 0
320 195 0.000000 0.000000 0.000000 0
322 195 0.000000 0.000000 0.000000 0
324 195 0.000000 0.000000 0.000000 0
326 195 0.000000 0.000000 0.000000 0
328 195 0.000000 0.000000 0.000000 0
330 195 0.000000 0.000000 0.000000 0
332 195 0.000000 0.000000 0.000000 0
334 195 0.000000 0.000000 0.000000 0
336 195 0.000000 0.000000 0.000000 0
338 195 0.000000 0.000000 0.000000 0
340 195 0.000000 0.000000 0.000000 0
342 195 0.000000 0.000000 0.000000 0
344 195 0.000000 0.000000 0.000000 0
346 195 0.000000 0.000000 0.000000 0
348 195 0.000000 0.000000 0.000000 0
350 195 0.000000 0.000000 0.000000 0
352 195 0.000000 0.000000 0.000000 0
354 195 0.000000 0.000000 0.000000 0
356 195 0.000000 0.000000 0.000000 0
358 195 0.000000 0.000000 0.000000 0
360 195 0.000000 0.000000 0.000000 0
362 195 0.000000 0.000000 0.000000 0
364 195 0.000000 0.000000 0.000000 0
366 195 0.000000 0.000000 0.000000 0
368 195 0.000000 0.000000 0.000000 0
370 195 0.000000 0.000000 0.000000 0
372 195 0.000000 0.000000 0.000000 0
374 195 0.000000 0.000000 0.000000 0
376 195 0.000000 0.000000 0.000000 0
378 195 0.000000 0.000000 0.000000 0
380 195 0.000000 0.000000 0.000000 0
382 195 0.000000 0.000000 0.000000 0
384 195 0.000000 0.000000 0.000000 0
386 195 0.000000 0.000000 0.000000 0
388 195 0.000000 0.000000 0.000000 0
390 195 0.000000 0.000000 0.000000 0
392 195 0.000000 0.000000 0.000000 0
394 195 0.000000 0.000000 0.000000 0
396 195 0.000000 0.000000 0.000000 0
398 195 0.000000 0.000000 0.000000 0
400 195 0.000000 0.000000 0.000000 0
402 195 0.000000 0.000000 0.000000 0
404 195 0.000000 0.000000 0.000000 0
406 195 0.000000 0.000000 0.000000 0
408 195 0.000000 0.000000 0.000000 0
410 195 0.000000 0.000000 0.000000 0
412 195 0.000000 0.000000 0.000000 0
414 195 0.000000 0.000000 0.000000 0
416 195 0.000000 0.000000 0.000000 0
418 195 0.000000 0.000000 0.000000 0
420 195 0.000000 0.000000 0.000000 0
422 195 0.000000 0.000000 0.000000 0
424 195 0.000000 0.000000 0.000000 0
426 195 0.000000 0.000000 0.000000 0
428 195 0.000000 0.000000 0.000000 0
430 195 0.000000 0.000000 0.000000 0
432 195 0.000000 0.000000 0.000000 0
434 195 0.000000 0.000000 0.000000 0
436 195 0.000000 0.000000 0.000000 0
438 195 0.000000 0.000000 0.000000 0
440 195 0.000000 0.000000 0.000000 0
442 195 0.000000 0.000000 0.000000 0
444 195 0.000000 0.000000 0.000000 0
446 195 0.000000 0.000000 0.000000 0
308 197 0.000000 0.000000 0.000000 0
310 197 0.000000 0.000000 0.000000 0
312 197 0.000000 0.000000 0.000000 0
314 197 0.000000 0.000000 0.000000 0
316 197 0.000000 0.000000 0.000000 0
318 197 0.109328 0.379681 -0.002259 1
320 197 0.061708 0.366628 -0.013990 1
322 197 0.008818 0.397613 -0.007568 1
324 197 -0.044679 0.431115 -0.028254 1
326 197 -0.099185 0.442980 -0.059264 1
328 197 -0.155691 0.429849 -0.085658 1
330 197 -0.209517 0.396617 -0.102666 1
332 197 -0.254719 0.347273 -0.104808 1
334 197 -0.289707 0.289301 -0.080548 1
336 197 -0.312712 0.224591 -0.050046 1
338 197 -0.330835 0.149737 -0.027367 1
340 197 -0.349757 0.065706 -0.015311 1
342 197 -0.363925 -0.023676 -0.019527 1
344 197 -0.357894 -0.115628 -0.034169 1
346 197 -0.333132 -0.205083 -0.046401 1
348 197 -0.297723 -0.293576 -0.060351 1
350 197 -0.261765 -0.378559 -0.079701 1
352 197 -0.217602 -0.457326 -0.094332 1
354 197 -0.160785 -0.534867 -0.104315 1
356 197 -0.098019 -0.599348 -0.114096 1
358 197 -0.037900 -0.636749 -0.132838 1
360 197 0.018227 -0.658669 -0.156151 1
362 197 0.080352 -0.666015 -0.186516 1
364 197 0.149653 -0.670745 -0.217815 1
366 197 0.217478 -0.675924 -0.235747 1
368 197 0.281739 -0.671664 -0.227021 1
370 197 0.352222 -0.659248 -0.197298 1
372 197 0.432754 -0.632315 -0.171926 1
374 197 0.514873 -0.596255 -0.164954 1
376 197 0.582789 -0.555188 -0.174390 1
378 197 0.628889 -0.507197 -0.185250 1
380 197 0.659269 -0.451974 -0.191157 1
382 197 0.684109 -0.390607 -0.188125 1
384 197 0.713197 -0.330329 -0.181748 1
386 197 0.746463 -0.273958 -0.182930 1
388 197 0.773164 -0.216965 -0.186966 1
390 197 0.788913 -0.160366 -0.190717 1
392 197 0.794614 -0.107127 -0.189545 1
394 197 0.795156 -0.055794 -0.186858 1
396 197 0.795723 -0.003248 -0.187963 1
398 197 0.790529 0.053706 -0.192237 1
400 197 0.776469 0.121356 -0.194639 1
402 197 0.759205 0.190093 -0.199235 1
404 197 0.805516 0.215552 -0.205731 1
406 197 0.000000 0.000000 0.000000 0
408 197 0.000000 0.000000 0.000000 0
410 197 0.000000 0.000000 0.000000 0
412 197 0.000000 0.000000 0.000000 0
414 197 0.000000 0.000000 0.000000 0
416 197 0.000000 0.000000 0.000000 0
418 197 0.000000 0.000000 0.000000 0
420 197 0.000000 0.000000 0.000000 0
422 197 0.000000 0.000000 0.000000 0
424 197 0.000000 0.000000 0.000000 0
426 197 0.000000 0.000000 0.000000 0
428 197 0.000000 0.000000 0.000000 0
430 197 0.000000 0.000000 0.000000 0
432 197 0.000000 0.000000 0.000000 0
434 197 0.000000 0.000000 0.000000 0
436 197 0.000000 0.000000 0.000000 0
438 197 0.000000 0.000000 0.000000 0
440 197 0.000000 0.000000 0.000000 0
442 197 0.000000 0.000000 0.000000 0
444 197 0.000000 0.000000 0.000000 0
446 197 0.000000 0.000000 0.000000 0
308 199 0.000000 0.000000 0.000000 0
310 199 0.000000 0.000000 0.000000 0
312 199 0.000000 0.000000 0.000000 0
314 199 0.000000 0.000000 0.000000 0
316 199 0.213879 0.406220 0.025361 1
318 199 0.155818 0.421526 0.023969 1
320 199 0.093077 0.461442 0.035346 1
322 199 0.034195 0.496703 0.036481 1
324 199 -0.025189 0.529121 0.017021 1
326 199 -0.083017 0.537025 -0.006616 1
328 199 -0.140824 0.517300 -0.020324 1
330 199 -0.192593 0.473094 -0.022390 1
332 199 -0.234323 0.408442 -0.010967 1
334 199 -0.260934 0.331238 0.023685 1
336 199 -0.271844 0.249864 0.059069 1
338 199 -0.269727 0.156622 0.083521 1
340 199 -0.268839 0.058122 0.096292 1
342 199 -0.262272 -0.045615 0.094012 1
344 199 -0.239872 -0.150850 0.083973 1
346 199 -0.203760 -0.253412 0.075287 1
348 199 -0.161077 -0.355276 0.060347 1
350 199 -0.120152 -0.449360 0.033261 1
352 199 -0.070949 -0.535101 0.000195 1
354 199 -0.010648 -0.617362 -0.032424 1
356 199 0.054309 -0.687678 -0.068258 1
358 199 0.114905 -0.732253 -0.109451 1
360 199 0.171107 -0.759922 -0.150239 1
362 199 0.233242 -0.769754 -0.192512 1
364 199 0.301940 -0.773885 -0.227509 1
366 199 0.366862 -0.776076 -0.246856 1
368 199 0.424272 -0.766954 -0.246176 1
370 199 0.482103 -0.747427 -0.232542 1
372 199 0.542579 -0.711186 -0.221978 1
374 199 0.604876 -0.665893 -0.218877 1
376 199 0.656193 -0.616685 -0.221849 1
378 199 0.696257 -0.564446 -0.226632 1
380 199 0.727703 -0.506378 -0.231801 1
382 199 0.756937 -0.441541 -0.233205 1
384 199 0.789108 -0.375224 -0.232008 1
386 199 0.822087 -0.310249 -0.233420 1
388 199 0.848795 -0.245720 -0.234613 1
390 199 0.867050 -0.182658 -0.233491 1
392 199 0.876013 -0.125261 -0.227812 1
394 199 0.879661 -0.069755 -0.217954 1
396 199 0.882265 -0.013508 -0.210549 1
398 199 0.879696 0.046180 -0.206603 1
400 199 0.869787 0.114626 -0.203277 1
402 199 0.856537 0.183194 -0.203746 1
404 199 0.838917 0.246155 -0.205876 1
406 199 0.878982 0.271156 -0.198773 1
408 199 0.000000 0.000000 0.000000 0
410 199 0.000000 0.000000 0.000000 0
412 199 0.000000 0.000000 0.000000 0
414 199 0.000000 0.000000 0.000000 0
416 199 0.000000 0.000000 0.000000 0
418 199 0.000000 0.000000 0.000000 0
420 199 0.000000 0.000000 0.000000 0
422 199 0.000000 0.000000 0.000000 0
424 199 0.000000 0.000000 0.000000 0
426 199 0.000000 0.000000 0.000000 0
428 199 0.000000 0.000000 0.000000 0
430 199 0.000000 0.000000 0.000000 0
432 199 0.000000 0.000000 0.000000 0
434 199 0.000000 0.000000 0.000000 0
436 199 0.000000 0.000000 0.000000 0
438 199 0.000000 0.000000 0.000000 0
440 199 0.000000 0.000000 0.000000 0
442 199 0.000000 0.000000 0.000000 0
444 199 0.000000 0.000000 0.000000 0
446 199 0.000000 0.000000 0.000000 0
308 201 0.000000 0.000000 0.000000 0
310 201 0.000000 0.000000 0.000000 0
312 201 0.000000 0.000000 0.000000 0
314 201 0.000000 0.000000 0.000000 0
316 201 0.253122 0.450662 0.037881 1
318 201 0.198662 0.496114 0.041991 1
320 201 0.126592 0.547334 0.043443 1
322 201 0.063572 0.585655 0.041074 1
324 201 0.007099 0.611815 0.029312 1
326 201 -0.042504 0.608974 0.023835 1
328 201 -0.089546 0.579372 0.030261 1
330 201 -0.124345 0.521440 0.052593 1
332 201 -0.150051 0.440456 0.082798 1
334 201 -0.162578 0.346610 0.127518 1
336 201 -0.160778 0.249863 0.168064 1
338 201 -0.146381 0.146452 0.195584 1
340 201 -0.128365 0.038762 0.216407 1
342 201 -0.106353 -0.072804 0.226041 1
344 201 -0.071024 -0.187572 0.231273 1
346 201 -0.027749 -0.301400 0.232342 1
348 201 0.016358 -0.414102 0.219051 1
350 201 0.057988 -0.518163 0.185872 1
352 201 0.107048 -0.609497 0.140459 1
354 201 0.166435 -0.695912 0.088484 1
356 201 0.230625 -0.770307 0.034692 1
358 201 0.292050 -0.821161 -0.021841 1
360 201 0.350051 -0.854346 -0.077250 1
362 201 0.412856 -0.864585 -0.130283 1
364 201 0.480031 -0.864718 -0.171767 1
366 201 0.541789 -0.861387 -0.194714 1
368 201 0.591567 -0.845277 -0.206589 1
370 201 0.636139 -0.819849 -0.212475 1
372 201 0.672161 -0.778683 -0.224757 1
374 201 0.706384 -0.728437 -0.237350 1
376 201 0.736989 -0.675589 -0.247362 1
378 201 0.765208 -0.619739 -0.254520 1
380 201 0.794795 -0.559006 -0.260899 1
382 201 0.825842 -0.490647 -0.261399 1
384 201 0.858758 -0.419471 -0.257191 1
386 201 0.889331 -0.348317 -0.252244 1
388 201 0.914591 -0.277390 -0.247987 1
390 201 0.933596 -0.209474 -0.244630 1
392 201 0.944824 -0.146204 -0.239732 1
394 201 0.950172 -0.085248 -0.230059 1
396 201 0.953807 -0.022978 -0.219439 1
398 201 0.953145 0.040122 -0.209545 1
400 201 0.946681 0.109295 -0.199893 1
402 201 0.937848 0.177946 -0.194305 1
404 201 0.924612 0.242228 -0.193102 1
406 201 0.908087 0.301790 -0.189098 1
408 201 0.944168 0.323005 -0.178748 1
410 201 0.000000 0.000000 0.000000 0
412 201 0.000000 0.000000 0.000000 0
414 201 0.000000 0.000000 0.000000 0
416 201 0.000000 0.000000 0.000000 0
418 201 0.000000 0.000000 0.000000 0
420 201 0.000000 0.000000 0.000000 0
422 201 0.000000 0.000000 0.000000 0
424 201 0.000000 0.000000 0.000000 0
426 201 0.000000 0.000000 0.000000 0
428 201 0.000000 0.000000 0.000000 0
430 201 0.000000 0.000000 0.000000 0
432 201 0.000000 0.000000 0.000000 0
434 201 0.000000 0.000000 0.000000 0
436 201 0.000000 0.000000 0.000000 0
438 201 0.000000 0.000000 0.000000 0
440 201 0.000000 0.000000 0.000000 0
442 201 0.000000 0.000000 0.000000 0
444 201 0.000000 0.000000 0.000000 0
446 201 0.000000 0.000000 0.000000 0
308 203 0.000000 0.000000 0.000000 0
310 203 0.000000 0.000000 0.000000 0
312 203 0.000000 0.000000 0.000000 0
314 203 0.000000 0.000000 0.000000 0
316 203 0.319346 0.500624 0.041295 1
318 203 0.259682 0.555339 0.035595 1
320 203 0.185341 0.615307 0.032002 1
322 203 0.126922 0.653755 0.033547 1
324 203 0.083732 0.669875 0.038830 1
326 203 0.048255 0.655615 0.053101 1
328 203 0.021312 0.611593 0.085868 1
330 203 0.007526 0.539929 0.131305 1
332 203 0.005506 0.443056 0.181143 1
334 203 0.009836 0.336621 0.231279 1
336 203 0.021636 0.231126 0.271167 1
338 203 0.044986 0.122736 0.299795 1
340 203 0.073615 0.012956 0.328581 1
342 203 0.109095 -0.101578 0.354303 1
344 203 0.151744 -0.221265 0.370797 1
346 203 0.196388 -0.342411 0.377483 1
348 203 0.236428 -0.462941 0.363432 1
350 203 0.273961 -0.574356 0.327662 1
352 203 0.319098 -0.672004 0.275678 1
354 203 0.375811 -0.762090 0.215147 1
356 203 0.438812 -0.839994 0.151394 1
358 203 0.502883 -0.894916 0.090366 1
360 203 0.565516 -0.931741 0.032774 1
362 203 0.630290 -0.940324 -0.019528 1
364 203 0.695832 -0.934661 -0.060548 1
366 203 0.753394 -0.922519 -0.088101 1
368 203 0.797042 -0.898966 -0.115594 1
370 203 0.828552 -0.867310 -0.149010 1
372 203 0.842031 -0.823663 -0.188596 1
374 203 0.846127 -0.772469 -0.226953 1
376 203 0.849186 -0.718935 -0.255363 1
378 203 0.860351 -0.661946 -0.271583 1
380 203 0.880541 -0.599723 -0.280576 1
382 203 0.907557 -0.530330 -0.278006 1
384 203 0.935706 -0.457180 -0.266529 1
386 203 0.959722 -0.383273 -0.252985 1
388 203 0.979509 -0.308755 -0.241301 1
390 203 0.995993 -0.235979 -0.235539 1
392 203 1.007090 -0.166457 -0.233600 1
394 203 1.012551 -0.096439 -0.229544 1
396 203 1.015633 -0.027306 -0.220697 1
398 203 1.015508 0.039907 -0.208240 1
400 203 1.011997 0.108807 -0.193244 1
402 203 1.007120 0.176558 -0.181826 1
404 203 0.999474 0.241164 -0.176667 1
406 203 0.988991 0.301660 -0.173797 1
408 203 0.984478 0.324875 -0.173851 1
410 203 0.000000 0.000000 0.000000 0
412 203 0.000000 0.000000 0.000000 0
414 203 0.000000 0.000000 0.000000 0
416 203 0.000000 0.000000 0.000000 0
418 203 0.000000 0.000000 0.000000 0
420 203 0.000000 0.000000 0.000000 0
422 203 0.000000 0.000000 0.000000 0
424 203 0.000000 0.000000 0.000000 0
426 203 0.000000 0.000000 0.000000 0
428 203 0.000000 0.000000 0.000000 0
430 203 0.000000 0.000000 0.000000 0
432 203 0.000000 0.000000 0.000000 0
434 203 0.000000 0.000000 0.000000 0
436 203 0.000000 0.000000 0.000000 0
438 203 0.000000 0.000000 0.000000 0
440 203 0.000000 0.000000 0.000000 0
442 203 0.000000 0.000000 0.000000 0
444 203 0.000000 0.000000 0.000000 0
446 203 0.000000 0.000000 0.000000 0
308 205 0.000000 0.000000 0.000000 0
310 205 0.000000 0.000000 0.000000 0
312 205 0.000000 0.000000 0.000000 0
314 205 0.000000 0.000000 0.000000 0
316 205 0.404992 0.540838 0.049710 1
318 205 0.350527 0.601788 0.038519 1
320 205 0.289276 0.664587 0.039790 1
322 205 0.249510 0.697702 0.056755 1
324 205 0.227793 0.702951 0.083374 1
326 205 0.212073 0.675902 0.118465 1
328 205 0.202214 0.619911 0.168384 1
330 205 0.209315 0.535001 0.231327 1
332 205 0.225147 0.429002 0.290631 1
334 205 0.242503 0.317991 0.339557 1
336 205 0.261146 0.209883 0.374218 1
338 205 0.289247 0.100685 0.399488 1
340 205 0.325247 -0.008524 0.427991 1
342 205 0.367099 -0.122556 0.453144 1
344 205 0.411789 -0.243996 0.461858 1
346 205 0.453203 -0.368886 0.461229 1
348 205 0.486015 -0.494950 0.442208 1
350 205 0.516716 -0.613125 0.406622 1
352 205 0.556473 -0.717380 0.356070 1
354 205 0.610296 -0.813501 0.294842 1
356 205 0.673898 -0.895334 0.230970 1
358 205 0.743099 -0.954495 0.178819 1
360 205 0.811856 -0.993958 0.137494 1
362 205 0.880214 -1.001063 0.108818 1
364 205 0.945636 -0.988792 0.081318 1
366 205 1.001099 -0.967320 0.051100 1
368 205 1.039265 -0.931843 0.000964 1
370 205 1.061896 -0.891676 -0.059320 1
372 205 1.057852 -0.842001 -0.127396 1
374 205 1.038815 -0.788886 -0.191283 1
376 205 1.016789 -0.735522 -0.241125 1
378 205 1.006032 -0.680194 -0.269887 1
380 205 1.010402 -0.620685 -0.283209 1
382 205 1.021773 -0.555337 -0.281816 1
384 205 1.037151 -0.484761 -0.268595 1
386 205 1.046000 -0.412443 -0.250850 1
388 205 1.055298 -0.336751 -0.234051 1
390 205 1.066045 -0.259399 -0.226660 1
392 205 1.075906 -0.181560 -0.228020 1
394 205 1.081009 -0.102838 -0.229324 1
396 205 1.082829 -0.025815 -0.225051 1
398 205 1.082376 0.044270 -0.213268 1
400 205 1.080518 0.112011 -0.196214 1
402 205 1.078591 0.177675 -0.181044 1
404 205 1.074848 0.241651 -0.173119 1
406 205 1.068644 0.302689 -0.170713 1
408 205 1.064834 0.326346 -0.172046 1
410 205 0.000000 0.000000 0.000000 0
412 205 0.000000 0.000000 0.000000 0
414 205 0.000000 0.000000 0.000000 0
416 205 0.000000 0.000000 0.000000 0
418 205 0.000000 0.000000 0.000000 0
420 205 0.000000 0.000000 0.000000 0
422 205 0.000000 0.000000 0.000000 0
424 205 0.000000 0.000000 0.000000 0
426 205 0.000000 0.000000 0.000000 0
428 205 0.000000 0.000000 0.000000 0
430 205 0.000000 0.000000 0.000000 0
432 205 0.000000 0.000000 0.000000 0
434 205 0.000000 0.000000 0.000000 0
436 205 0.000000 0.000000 0.000000 0
438 205 0.000000 0.000000 0.000000 0
440 205 0.000000 0.000000 0.000000 0
442 205 0.000000 0.000000 0.000000 0
444 205 0.000000 0.000000 0.000000 0
446 205 0.000000 0.000000 0.000000 0
308 207 0.000000 0.000000 0.000000 0
310 207 0.000000 0.000000 0.000000 0
312 207 0.000000 0.000000 0.000000 0
314 207 0.000000 0.000000 0.000000 0
316 207 0.509229 0.575919 0.066686 1
318 207 0.463584 0.641496 0.055901 1
320 207 0.422879 0.702514 0.067768 1
322 207 0.409969 0.726977 0.105604 1
324 207 0.412154 0.721632 0.152378 1
326 207 0.414447 0.684478 0.202159 1
328 207 0.419917 0.617662 0.263635 1
330 207 0.438195 0.525301 0.333579 1
332 207 0.465591 0.414919 0.397123 1
334 207 0.488799 0.304596 0.445155 1
336 207 0.510380 0.197678 0.475568 1
338 207 0.538689 0.089342 0.492436 1
340 207 0.573801 -0.018333 0.507425 1
342 207 0.614643 -0.130203 0.513340 1
344 207 0.658236 -0.251520 0.503998 1
346 207 0.697134 -0.379743 0.488424 1
348 207 0.725393 -0.511442 0.465019 1
350 207 0.749931 -0.637311 0.431149 1
352 207 0.783443 -0.749770 0.384750 1
354 207 0.833276 -0.853268 0.325560 1
356 207 0.896156 -0.941566 0.262774 1
358 207 0.967241 -1.004763 0.216662 1
360 207 1.039938 -1.047138 0.194183 1
362 207 1.110302 -1.053023 0.187784 1
364 207 1.176542 -1.034568 0.174971 1
366 207 1.231971 -1.002109 0.142388 1
368 207 1.268048 -0.953987 0.081268 1
370 207 1.285777 -0.900461 0.005888 1
372 207 1.276476 -0.842329 -0.067993 1
374 207 1.247780 -0.783369 -0.140568 1
376 207 1.212897 -0.728591 -0.201095 1
378 207 1.185216 -0.675292 -0.241361 1
380 207 1.169838 -0.621256 -0.264698 1
382 207 1.161473 -0.562941 -0.273800 1
384 207 1.153996 -0.500254 -0.271104 1
386 207 1.144804 -0.433010 -0.258211 1
388 207 1.138868 -0.359376 -0.240995 1
390 207 1.142685 -0.278866 -0.231557 1
392 207 1.150524 -0.194362 -0.232175 1
394 207 1.155210 -0.107429 -0.235852 1
396 207 1.155715 -0.024636 -0.235169 1
398 207 1.153935 0.049133 -0.226688 1
400 207 1.151836 0.117070 -0.210582 1
402 207 1.150786 0.181684 -0.193955 1
404 207 1.148751 0.245253 -0.183312 1
406 207 1.143587 0.306926 -0.179823 1
408 207 1.139718 0.331454 -0.180783 1
410 207 0.000000 0.000000 0.000000 0
412 207 0.000000 0.000000 0.000000 0
414 207 0.000000 0.000000 0.000000 0
416 207 0.000000 0.000000 0.000000 0
418 207 0.000000 0.000000 0.000000 0
420 207 0.000000 0.000000 0.000000 0
422 207 0.000000 0.000000 0.000000 0
424 207 0.000000 0.000000 0.000000 0
426 207 0.000000 0.000000 0.000000 0
428 207 0.000000 0.000000 0.000000 0
430 207 0.000000 0.000000 0.000000 0
432 207 0.000000 0.000000 0.000000 0
434 207 0.000000 0.000000 0.000000 0
436 207 0.000000 0.000000 0.000000 0
438 207 0.000000 0.000000 0.000000 0
440 207 0.000000 0.000000 0.000000 0
442 207 0.000000 0.000000 0.000000 0
444 207 0.000000 0.000000 0.000000 0
446 207 0.000000 0.000000 0.000000 0
308 209 0.000000 0.000000 0.000000 0
310 209 0.000000 0.000000 0.000000 0
312 209 0.000000 0.000000 0.000000 0
314 209 0.000000 0.000000 0.000000 0
316 209 0.656627 0.599354 0.084385 1
318 209 0.629776 0.667843 0.076988 1
320 209 0.618577 0.723003 0.106729 1
322 209 0.629298 0.738693 0.161513 1
324 209 0.653081 0.724754 0.221663 1
326 209 0.670516 0.680746 0.277890 1
328 209 0.686867 0.608004 0.341972 1
330 209 0.712032 0.512647 0.411988 1
332 209 0.742945 0.403135 0.474853 1
334 209 0.767881 0.296834 0.521784 1
336 209 0.788912 0.192578 0.546695 1
338 209 0.812786 0.086146 0.546783 1
340 209 0.839639 -0.019669 0.536185 1
342 209 0.873182 -0.129784 0.516942 1
344 209 0.916112 -0.251527 0.489230 1
346 209 0.957451 -0.382907 0.465374 1
348 209 0.987382 -0.521572 0.441380 1
350 209 1.010629 -0.655210 0.411611 1
352 209 1.040337 -0.776725 0.372085 1
354 209 1.085627 -0.889492 0.319023 1
356 209 1.144237 -0.985296 0.259171 1
358 209 1.210052 -1.052777 0.214011 1
360 209 1.278238 -1.095432 0.193184 1
362 209 1.341605 -1.096467 0.188078 1
364 209 1.401857 -1.069351 0.172666 1
366 209 1.451635 -1.024611 0.137219 1
368 209 1.482437 -0.963364 0.084645 1
370 209 1.497246 -0.898884 0.027226 1
372 209 1.490059 -0.830754 -0.018580 1
374 209 1.465999 -0.764494 -0.071871 1
376 209 1.433201 -0.703574 -0.124646 1
378 209 1.397936 -0.648518 -0.172350 1
380 209 1.365432 -0.597038 -0.211962 1
382 209 1.332159 -0.546137 -0.243683 1
384 209 1.299998 -0.492383 -0.261337 1
386 209 1.265316 -0.435012 -0.264135 1
388 209 1.243482 -0.366646 -0.251509 1
390 209 1.236049 -0.287231 -0.240184 1
392 209 1.238001 -0.200428 -0.237503 1
394 209 1.238394 -0.110019 -0.241022 1
396 209 1.234547 -0.023408 -0.244830 1
398 209 1.229734 0.053467 -0.241421 1
400 209 1.224731 0.124195 -0.230022 1
402 209 1.221737 0.190366 -0.214228 1
404 209 1.217468 0.255214 -0.201178 1
406 209 1.209526 0.317879 -0.194770 1
408 209 1.204890 0.342183 -0.193750 1
410 209 0.000000 0.000000 0.000000 0
412 209 0.000000 0.000000 0.000000 0
414 209 0.000000 0.000000 0.000000 0
416 209 0.000000 0.000000 0.000000 0
418 209 0.000000 0.000000 0.000000 0
420 209 0.000000 0.000000 0.000000 0
422 209 0.000000 0.000000 0.000000 0
424 209 0.000000 0.000000 0.000000 0
426 209 0.000000 0.000000 0.000000 0
428 209 0.000000 0.000000 0.000000 0
430 209 0.000000 0.000000 0.000000 0
432 209 0.000000 0.000000 0.000000 0
434 209 0.000000 0.000000 0.000000 0
436 209 0.000000 0.000000 0.000000 0
438 209 0.000000 0.000000 0.000000 0
440 209 0.000000 0.000000 0.000000 0
442 209 0.000000 0.000000 0.000000 0
444 209 0.000000 0.000000 0.000000 0
446 209 0.000000 0.000000 0.000000 0
308 211 0.000000 0.000000 0.000000 0
310 211 0.000000 0.000000 0.000000 0
312 211 0.000000 0.000000 0.000000 0
314 211 0.000000 0.000000 0.000000 0
316 211 0.828337 0.605797 0.102369 1
318 211 0.822931 0.677561 0.102886 1
320 211 0.835032 0.729326 0.147055 1
322 211 0.869223 0.737330 0.216281 1
324 211 0.909323 0.718201 0.282672 1
326 211 0.942397 0.670246 0.340750 1
328 211 0.970547 0.595126 0.403199 1
330 211 1.002888 0.500545 0.469311 1
332 211 1.037828 0.394520 0.528046 1
334 211 1.064658 0.292599 0.570722 1
336 211 1.085966 0.191568 0.586423 1
338 211 1.107132 0.085952 0.570532 1
340 211 1.128254 -0.020251 0.537683 1
342 211 1.156014 -0.131177 0.497172 1
344 211 1.199195 -0.254541 0.457086 1
346 211 1.245987 -0.388863 0.425605 1
348 211 1.281876 -0.532071 0.399826 1
350 211 1.309997 -0.673450 0.373369 1
352 211 1.340421 -0.803548 0.340857 1
354 211 1.383135 -0.926822 0.298384 1
356 211 1.436284 -1.031678 0.247202 1
358 211 1.493698 -1.102391 0.204998 1
360 211 1.550865 -1.143112 0.181293 1
362 211 1.602192 -1.137902 0.169711 1
364 211 1.647468 -1.100826 0.147531 1
366 211 1.684617 -1.045770 0.111497 1
368 211 1.703658 -0.974460 0.073138 1
370 211 1.710899 -0.900761 0.042987 1
372 211 1.702780 -0.824752 0.024644 1
374 211 1.684721 -0.748689 -0.001292 1
376 211 1.657820 -0.679031 -0.042080 1
378 211 1.622523 -0.615953 -0.091205 1
380 211 1.579815 -0.561174 -0.143954 1
382 211 1.528224 -0.512129 -0.195074 1
384 211 1.471558 -0.465815 -0.235135 1
386 211 1.415654 -0.417438 -0.253801 1
388 211 1.372395 -0.359098 -0.251755 1
390 211 1.350433 -0.285521 -0.241752 1
392 211 1.339291 -0.202560 -0.236848 1
394 211 1.330297 -0.113178 -0.240224 1
396 211 1.318748 -0.025501 -0.247877 1
398 211 1.308435 0.054687 -0.250743 1
400 211 1.299658 0.129344 -0.244133 1
402 211 1.292301 0.199906 -0.230663 1
404 211 1.283601 0.267376 -0.215530 1
406 211 1.270248 0.331524 -0.204619 1
408 211 1.265042 0.355780 -0.200263 1
410 211 0.000000 0.000000 0.000000 0
412 211 0.000000 0.000000 0.000000 0
414 211 0.000000 0.000000 0.000000 0
416 211 0.000000 0.000000 0.000000 0
418 211 0.000000 0.000000 0.000000 0
420 211 0.000000 0.000000 0.000000 0
422 211 0.000000 0.000000 0.000000 0
424 211 0.000000 0.000000 0.000000 0
426 211 0.000000 0.000000 0.000000 0
428 211 0.000000 0.000000 0.000000 0
430 211 0.000000 0.000000 0.000000 0
432 211 0.000000 0.000000 0.000000 0
434 211 0.000000 0.000000 0.000000 0
436 211 0.000000 0.000000 0.000000 0
438 211 0.000000 0.000000 0.000000 0
440 211 0.000000 0.000000 0.000000 0
442 211 0.000000 0.000000 0.000000 0
444 211 0.000000 0.000000 0.000000 0
446 211 0.000000 0.000000 0.000000 0
308 213 0.000000 0.000000 0.000000 0
310 213 0.000000 0.000000 0.000000 0
312 213 0.000000 0.000000 0.000000 0
314 213 0.000000 0.000000 0.000000 0
316 213 1.022621 0.586189 0.106768 1
318 213 1.032737 0.661575 0.117196 1
320 213 1.065286 0.712688 0.173646 1
322 213 1.112926 0.718176 0.248983 1
324 213 1.166564 0.697229 0.316149 1
326 213 1.211509 0.649011 0.372077 1
328 213 1.251601 0.575647 0.429519 1
330 213 1.291661 0.485523 0.488997 1
332 213 1.331495 0.384804 0.541642 1
334 213 1.361310 0.287739 0.577440 1
336 213 1.383696 0.188728 0.585907 1
338 213 1.405272 0.082184 0.562036 1
340 213 1.425995 -0.026386 0.520200 1
342 213 1.451612 -0.140300 0.467686 1
344 213 1.492593 -0.265410 0.414462 1
346 213 1.540174 -0.400613 0.371397 1
348 213 1.581318 -0.545876 0.338945 1
350 213 1.615097 -0.691684 0.312850 1
352 213 1.648258 -0.830086 0.285642 1
354 213 1.688882 -0.961964 0.252326 1
356 213 1.735790 -1.073593 0.212338 1