TITLE = "B00024"
VARIABLES = "X", "Y", "Vx", "Vy", "Vz", "flag"
ZONE T="B00024", I=70, J=78
308 191 0.000000 0.000000 0.000000 0
310 191 0.000000 0.000000 0.000000 0
312 191 0.000000 0.000000 0.000000 0
314 191 0.000000 0.000000 0.000000 0
316 191 0.000000 0.000000 0.000000 0
318 191 0.000000 0.000000 0.000000 0
320 191 0.000000 0.000000 0.000000 0
322 191 0.000000 0.000000 0.000000 0
324 191 0.000000 0.000000 0.000000 0
326 191 0.000000 0.000000 0.000000 0
328 191 0.000000 0.000000 0.000000 0
330 191 0.000000 0.000000 0.000000 0
332 191 0.000000 0.000000 0.000000 0
334 191 0.000000 0.000000 0.000000 0
336 191 0.000000 0.000000 0.000000 0
338 191 0.000000 0.000000 0.000000 0
340 191 0.000000 0.000000 0.000000 0
342 191 0.000000 0.000000 0.000000 0
344 191 0.000000 0.000000 0.000000 0
346 191 0.000000 0.000000 0.000000 0
348 191 0.000000 0.000000 0.000000 0
350 191 0.000000 0.000000 0.000000 0
352 191 0.000000 0.000000 0.000000 0
354 191 0.000000 0.000000 0.000000 0
356 191 0.000000 0.000000 0.000000 0
358 191 0.000000 0.000000 0.000000 0
360 191 0.000000 0.000000 0.000000 0
362 191 0.000000 0.000000 0.000000 0
364 191 0.000000 0.000000 0.000000 0
366 191 0.000000 0.000000 0.000000 0
368 191 0.000000 0.000000 0.000000 0
370 191 0.000000 0.000000 0.000000 0
372 191 0.000000 0.000000 0.000000 0
374 191 0.000000 0.000000 0.000000 0
376 191 0.000000 0.000000 0.000000 0
378 191 0.000000 0.000000 0.000000 0
380 191 0.000000 0.000000 0.000000 0
382 191 0.000000 0.000000 0.000000 0
384 191 0.000000 0.000000 0.000000 0
386 191 0.000000 0.000000 0.000000 0
388 191 0.000000 0.000000 0.000000 0
390 191 0.000000 0.000000 0.000000 0
392 191 0.000000 0.000000 0.000000 0
394 191 0.000000 0.000000 0.000000 0
396 191 0.000000 0.000000 0.000000 0
398 191 0.000000 0.000000 0.000000 0
400 191 0.000000 0.000000 0.000000 0
402 191 0.000000 0.000000 0.000000 0
404 191 0.000000 0.000000 0.000000 0
406 191 0.000000 0.000000 0.000000 0
408 191 0.000000 0.000000 0.000000 0
410 191 0.000000 0.000000 0.000000 0
412 191 0.000000 0.000000 0.000000 0
414 191 0.000000 0.000000 0.000000 0
416 191 0.000000 0.000000 0.000000 0
418 191 0.000000 0.000000 0.000000 0
420 191 0.000000 0.000000 0.000000 0
422 191 0.000000 0.000000 0.000000 0
424 191 0.000000 0.000000 0.000000 0
426 191 0.000000 0.000000 0.000000 0
428 191 0.000000 0.000000 0.000000 0
430 191 0.000000 0.000000 0.000000 0
432 191 0.000000 0.000000 0.000000 0
434 191 0.000000 0.000000 0.000000 0
436 191 0.000000 0.000000 0.000000 0
438 191 0.000000 0.000000 0.000000 0
440 191 0.000000 0.000000 0.000000 0
442 191 0.000000 0.000000 0.000000 0
444 191 0.000000 0.000000 0.000000 0
446 191 0.000000 0.000000 0.000000 0
308 193 0.000000 0.000000 0.000000 0
310 193 0.000000 0.000000 0.000000 0
312 193 0.000000 0.000000 0.000000 0
314 193 0.000000 0.000000 0.000000 0
316 193 0.000000 0.000000 0.000000 0
318 193 0.000000 0.000000 0.000000 0
320 193 0.000000 0.000000 0.000000 0
322 193 0.000000 0.000000 0.000000 0
324 193 0.000000 0.000000 0.000000 0
326 193 0.000000 0.000000 0.000000 0
328 193 0.000000 0.000000 0.000000 0
330 193 0.000000 0.000000 0.000000 0
332 193 0.000000 0.000000 0.000000 0
334 193 0.000000 0.000000 0.000000 0
336 193 0.000000 0.000000 0.000000 0
338 193 0.000000 0.000000 0.000000 0
340 193 0.000000 0.000000 0.000000 0
342 193 0.000000 0.000000 0.000000 0
344 193 0.000000 0.000000 0.000000 0
346 193 0.000000 0.000000 0.000000 0
348 193 0.000000 0.000000 0.000000 0
350 193 0.000000 0.000000 0.000000 0
352 193 0.000000 0.000000 0.000000 0
354 193 0.000000 0.000000 0.000000 0
356 193 0.000000 0.000000 0.000000 0
358 193 0.000000 0.000000 0.000000 0
360 193 0.000000 0.000000 0.000000 0
362 193 0.000000 0.000000 0.000000 0
364 193 0.000000 0.000000 0.000000 0
366 193 0.000000 0.000000 0.000000 0
368 193 0.000000 0.000000 0.000000 0
370 193 0.000000 0.000000 0.000000 0
372 193 0.000000 0.000000 0.000000 0
374 193 0.000000 0.000000 0.000000 0
376 193 0.000000 0.000000 0.000000 0
378 193 0.000000 0.000000 0.000000 0
380 193 0.000000 0.000000 0.000000 0
382 193 0.000000 0.000000 0.000000 0
384 193 0.000000 0.000000 0.000000 0
386 193 0.000000 0.000000 0.000000 0
388 193 0.000000 0.000000 0.000000 0
390 193 0.000000 0.000000 0.000000 0
392 193 0.000000 0.000000 0.000000 0
394 193 0.000000 0.000000 0.000000 0
396 193 0.000000 0.000000 0.000000 0
398 193 0.000000 0.000000 0.000000 0
400 193 0.000000 0.000000 0.000000 0
402 193 0.000000 0.000000 0.000000 0
404 193 0.000000 0.000000 0.000000 0
406 193 0.000000 0.000000 0.000000 0
408 193 0.000000 0.000000 0.000000 0
410 193 0.000000 0.000000 0.000000 0
412 193 0.000000 0.000000 0.000000 0
414 193 0.000000 0.000000 0.000000 0
416 193 0.000000 0.000000 0.000000 0
418 193 0.000000 0.000000 0.000000 0
420 193 0.000000 0.000000 0.000000 0
422 193 0.000000 0.000000 0.000000 0
424 193 0.000000 0.000000 0.000000 0
426 193 0.000000 0.000000 0.000000 0
428 193 0.000000 0.000000 0.000000 0
430 193 0.000000 0.000000 0.000000 0
432 193 0.000000 0.000000 0.000000 0
434 193 0.000000 0.000000 0.000000 0
436 193 0.000000 0.000000 0.000000 0
438 193 0.000000 0.000000 0.000000 0
440 193 0.000000 0.000000 0.000000 0
442 193 0.000000 0.000000 0.000000 0
444 193 0.000000 0.000000 0.000000 0
446 193 0.000000 0.000000 0.000000 0
308 195 0.000000 0.000000 0.000000 0
310 195 0.000000 0.000000 0.000000 0
312 195 0.000000 0.000000 0.000000 0
314 195 0.000000 0.000000 0.000000 0
316 195 0.000000 0.000000 0.000000 0
318 195 0.000000 0.000000 0.000000 0
320 195 0.000000 0.000000 0.000000 0
322 195 0.000000 0.000000 0.000000 0
324 195 0.000000 0.000000 0.000000 0
326 195 0.000000 0.000000 0.000000 0
328 195 0.000000 0.000000 0.000000 0
330 195 0.000000 0.000000 0.000000 0
332 195 0.000000 0.000000 0.000000 0
334 195 0.000000 0.000000 0.000000 0
336 195 0.000000 0.000000 0.000000 0
338 195 0.000000 0.000000 0.000000 0
340 195 0.000000 0.000000 0.000000 0
342 195 0.000000 0.000000 0.000000 0
344 195 0.000000 0.000000 0.000000 0
346 195 0.000000 0.000000 0.000000 0
348 195 0.000000 0.000000 0.000000 0
350 195 0.000000 0.000000 0.000000 0
352 195 0.000000 0.000000 0.000000 0
354 195 0.000000 0.000000 0.000000 0
356 195 0.000000 0.000000 0.000000 0
358 195 0.000000 0.000000 0.000000 0
360 195 0.000000 0.000000 0.000000 0
362 195 0.000000 0.000000 0.000000 0
364 195 0.000000 0.000000 0.000000 0
366 195 0.000000 0.000000 0.000000 0
368 195 0.000000 0.000000 0.000000 0
370 195 0.000000 0.000000 0.000000 0
372 195 0.000000 0.000000 0.000000 0
374 195 0.000000 0.000000 0.000000 0
376 195 0.000000 0.000000 0.000000 0
378 195 0.000000 0.000000 0.000000 0
380 195 0.000000 0.000000 0.000000 0
382 195 0.000000 0.000000 0.000000 0
384 195 0.000000 0.000000 0.000000 0
386 195 0.000000 0.000000 0.000000 0
388 195 0.000000 0.000000 0.000000 0
390 195 0.000000 0.000000 0.000000 0
392 195 0.000000 0.000000 0.000000 0
394 195 0.000000 0.000000 0.000000 0
396 195 0.000000 0.000000 0.000000 0
398 195 0.000000 0.000000 0.000000 0
400 195 0.000000 0.000000 0.000000 0
402 195 0.000000 0.000000 0.000000 0
404 195 0.000000 0.000000 0.000000 0
406 195 0.000000 0.000000 0.000000 0
408 195 0.000000 0.000000 0.000000 0
410 195 0.000000 0.000000 0.000000 0
412 195 0.000000 0.000000 0.000000 0
414 195 0.000000 0.000000 0.000000 0
416 195 0.000000 0.000000 0.000000 0
418 195 0.000000 0.000000 0.000000 0
420 195 0.000000 0.000000 0.000000 0
422 195 0.000000 0.000000 0.000000 0
424 195 0.000000 0.000000 0.000000 0
426 195 0.000000 0.000000 0.000000 0
428 195 0.000000 0.000000 0.000000 0
430 195 0.000000 0.000000 0.000000 0
432 195 0.000000 0.000000 0.000000 0
434 195 0.000000 0.000000 0.000000 0
436 195 0.000000 0.000000 0.000000 0
438 195 0.000000 0.000000 0.000000 0
440 195 0.000000 0.000000 0.000000 0
442 195 0.000000 0.000000 0.000000 0
444 195 0.000000 0.000000 0.000000 0
446 195 0.000000 0.000000 0.000000 0
308 197 0.000000 0.000000 0.000000 0
310 197 0.000000 0.000000 0.000000 0
312 197 0.000000 0.000000 0.000000 0
314 197 0.000000 0.000000 0.000000 0
316 197 0.000000 0.000000 0.000000 0
318 197 0.048941 0.389660 -0.013713 1
320 197 0.003626 0.367952 -0.027421 1
322 197 -0.057318 0.378903 -0.010720 1
324 197 -0.118458 0.391526 -0.017112 1
326 197 -0.174815 0.386670 -0.042382 1
328 197 -0.225740 0.359707 -0.073676 1
330 197 -0.266993 0.312737 -0.101366 1
332 197 -0.298886 0.250649 -0.118264 1
334 197 -0.323924 0.182516 -0.106562 1
336 197 -0.335992 0.111770 -0.083402 1
338 197 -0.338968 0.035031 -0.067732 1
340 197 -0.342362 -0.048874 -0.065246 1
342 197 -0.341504 -0.137380 -0.073972 1
344 197 -0.323715 -0.227543 -0.088936 1
346 197 -0.289833 -0.310859 -0.102166 1
348 197 -0.242572 -0.388333 -0.116964 1
350 197 -0.192717 -0.462290 -0.130628 1
352 197 -0.139138 -0.527662 -0.130296 1
354 197 -0.077439 -0.587305 -0.123956 1
356 197 -0.012338 -0.630956 -0.125490 1
358 197 0.047278 -0.649249 -0.148219 1
360 197 0.105887 -0.658858 -0.178155 1
362 197 0.174187 -0.656968 -0.206169 1
364 197 0.249228 -0.647030 -0.221927 1
366 197 0.320210 -0.630746 -0.216001 1
368 197 0.382019 -0.602480 -0.189999 1
370 197 0.443847 -0.566905 -0.164994 1
372 197 0.510375 -0.525120 -0.165629 1
374 197 0.575600 -0.481743 -0.181901 1
376 197 0.628567 -0.435875 -0.196899 1
378 197 0.664269 -0.383514 -0.199877 1
380 197 0.686533 -0.326887 -0.192066 1
382 197 0.705197 -0.269682 -0.179459 1
384 197 0.726997 -0.215606 -0.176609 1
386 197 0.748891 -0.162210 -0.189042 1
388 197 0.763262 -0.106592 -0.199772 1
390 197 0.771711 -0.053093 -0.194879 1
392 197 0.776602 -0.005258 -0.180586 1
394 197 0.777614 0.040803 -0.172008 1
396 197 0.773328 0.090781 -0.178972 1
398 197 0.761548 0.145962 -0.192680 1
400 197 0.744403 0.212064 -0.195241 1
402 197 0.725105 0.277136 -0.181061 1
404 197 0.768529 0.307691 -0.174521 1
406 197 0.000000 0.000000 0.000000 0
408 197 0.000000 0.000000 0.000000 0
410 197 0.000000 0.000000 0.000000 0
412 197 0.000000 0.000000 0.000000 0
414 197 0.000000 0.000000 0.000000 0
416 197 0.000000 0.000000 0.000000 0
418 197 0.000000 0.000000 0.000000 0
420 197 0.000000 0.000000 0.000000 0
422 197 0.000000 0.000000 0.000000 0
424 197 0.000000 0.000000 0.000000 0
426 197 0.000000 0.000000 0.000000 0
428 197 0.000000 0.000000 0.000000 0
430 197 0.000000 0.000000 0.000000 0
432 197 0.000000 0.000000 0.000000 0
434 197 0.000000 0.000000 0.000000 0
436 197 0.000000 0.000000 0.000000 0
438 197 0.000000 0.000000 0.000000 0
440 197 0.000000 0.000000 0.000000 0
442 197 0.000000 0.000000 0.000000 0
444 197 0.000000 0.000000 0.000000 0
446 197 0.000000 0.000000 0.000000 0
308 199 0.000000 0.000000 0.000000 0
310 199 0.000000 0.000000 0.000000 0
312 199 0.000000 0.000000 0.000000 0
314 199 0.000000 0.000000 0.000000 0
316 199 0.144600 0.427185 0.028100 1
318 199 0.085473 0.435815 0.018990 1
320 199 0.016224 0.460167 0.031582 1
322 199 -0.046956 0.473080 0.043261 1
324 199 -0.108464 0.481017 0.039248 1
326 199 -0.164163 0.467793 0.023845 1
328 199 -0.212622 0.428717 0.009618 1
330 199 -0.247518 0.366556 0.001686 1
332 199 -0.270822 0.286233 0.001214 1
334 199 -0.283640 0.196249 0.021099 1
336 199 -0.283560 0.107209 0.043583 1
338 199 -0.270078 0.011942 0.053514 1
340 199 -0.258198 -0.085218 0.050653 1
342 199 -0.240614 -0.185932 0.036821 1
344 199 -0.208162 -0.287059 0.019125 1
346 199 -0.163845 -0.381262 0.004196 1
348 199 -0.111325 -0.469697 -0.013975 1
350 199 -0.059481 -0.550609 -0.037504 1
352 199 -0.004490 -0.620090 -0.061612 1
354 199 0.057701 -0.681482 -0.084956 1
356 199 0.121501 -0.726744 -0.117278 1
358 199 0.177056 -0.745662 -0.160769 1
360 199 0.230300 -0.754088 -0.202566 1
362 199 0.291983 -0.749907 -0.237233 1
364 199 0.361069 -0.737687 -0.258482 1
366 199 0.424774 -0.717964 -0.263875 1
368 199 0.479561 -0.684686 -0.252821 1
370 199 0.533300 -0.641608 -0.240063 1
372 199 0.589519 -0.590288 -0.239060 1
374 199 0.645640 -0.538082 -0.244690 1
376 199 0.693048 -0.484828 -0.245884 1
378 199 0.729902 -0.428543 -0.241644 1
380 199 0.758602 -0.368877 -0.231252 1
382 199 0.783210 -0.307952 -0.215152 1
384 199 0.807952 -0.248277 -0.204158 1
386 199 0.830546 -0.188115 -0.207540 1
388 199 0.846434 -0.126587 -0.215908 1
390 199 0.858244 -0.067227 -0.214651 1
392 199 0.865194 -0.014941 -0.201683 1
394 199 0.866716 0.036082 -0.187542 1
396 199 0.862563 0.090530 -0.184651 1
398 199 0.852252 0.149433 -0.189903 1
400 199 0.838619 0.217500 -0.190951 1
402 199 0.822559 0.283968 -0.182342 1
404 199 0.797617 0.341105 -0.167566 1
406 199 0.832879 0.370689 -0.165435 1
408 199 0.000000 0.000000 0.000000 0
410 199 0.000000 0.000000 0.000000 0
412 199 0.000000 0.000000 0.000000 0
414 199 0.000000 0.000000 0.000000 0
416 199 0.000000 0.000000 0.000000 0
418 199 0.000000 0.000000 0.000000 0
420 199 0.000000 0.000000 0.000000 0
422 199 0.000000 0.000000 0.000000 0
424 199 0.000000 0.000000 0.000000 0
426 199 0.000000 0.000000 0.000000 0
428 199 0.000000 0.000000 0.000000 0
430 199 0.000000 0.000000 0.000000 0
432 199 0.000000 0.000000 0.000000 0
434 199 0.000000 0.000000 0.000000 0
436 199 0.000000 0.000000 0.000000 0
438 199 0.000000 0.000000 0.000000 0
440 199 0.000000 0.000000 0.000000 0
442 199 0.000000 0.000000 0.000000 0
444 199 0.000000 0.000000 0.000000 0
446 199 0.000000 0.000000 0.000000 0
308 201 0.000000 0.000000 0.000000 0
310 201 0.000000 0.000000 0.000000 0
312 201 0.000000 0.000000 0.000000 0
314 201 0.000000 0.000000 0.000000 0
316 201 0.170110 0.477957 0.041845 1
318 201 0.110448 0.514450 0.042376 1
320 201 0.036710 0.546587 0.046296 1
322 201 -0.024102 0.559925 0.053579 1
324 201 -0.077534 0.559258 0.055148 1
326 201 -0.122276 0.530835 0.057899 1
328 201 -0.158888 0.476892 0.067444 1
330 201 -0.175013 0.396878 0.091422 1
332 201 -0.179195 0.298517 0.117064 1
334 201 -0.176489 0.192117 0.149770 1
336 201 -0.165506 0.087411 0.174236 1
338 201 -0.144469 -0.018681 0.182812 1
340 201 -0.121669 -0.125792 0.181977 1
342 201 -0.091996 -0.233863 0.172714 1
344 201 -0.045536 -0.343340 0.161282 1
346 201 0.007902 -0.447069 0.150163 1
348 201 0.061951 -0.544013 0.131179 1
350 201 0.112073 -0.631430 0.098743 1
352 201 0.164171 -0.703133 0.058225 1
354 201 0.222865 -0.765608 0.010928 1
356 201 0.283755 -0.812538 -0.042244 1
358 201 0.336330 -0.833098 -0.103250 1
360 201 0.384564 -0.841021 -0.161006 1
362 201 0.438610 -0.834168 -0.208270 1
364 201 0.496818 -0.818179 -0.242128 1
366 201 0.550181 -0.794850 -0.261238 1
368 201 0.591790 -0.756956 -0.271336 1
370 201 0.632145 -0.709017 -0.274333 1
372 201 0.671136 -0.652751 -0.276240 1
374 201 0.712377 -0.594491 -0.275675 1
376 201 0.751620 -0.536056 -0.271434 1
378 201 0.787078 -0.474485 -0.265104 1
380 201 0.819275 -0.410911 -0.255313 1
382 201 0.848243 -0.345107 -0.235382 1
384 201 0.875324 -0.280303 -0.213154 1
386 201 0.898889 -0.215108 -0.201610 1
388 201 0.917148 -0.148459 -0.202296 1
390 201 0.931906 -0.084255 -0.204000 1
392 201 0.940332 -0.025792 -0.198693 1
394 201 0.941208 0.030538 -0.186882 1
396 201 0.936460 0.090117 -0.179172 1
398 201 0.928381 0.152263 -0.177090 1
400 201 0.919625 0.221684 -0.174751 1
402 201 0.908426 0.290226 -0.171575 1
404 201 0.886482 0.351586 -0.168500 1
406 201 0.854075 0.403827 -0.164269 1
408 201 0.884036 0.429867 -0.164460 1
410 201 0.000000 0.000000 0.000000 0
412 201 0.000000 0.000000 0.000000 0
414 201 0.000000 0.000000 0.000000 0
416 201 0.000000 0.000000 0.000000 0
418 201 0.000000 0.000000 0.000000 0
420 201 0.000000 0.000000 0.000000 0
422 201 0.000000 0.000000 0.000000 0
424 201 0.000000 0.000000 0.000000 0
426 201 0.000000 0.000000 0.000000 0
428 201 0.000000 0.000000 0.000000 0
430 201 0.000000 0.000000 0.000000 0
432 201 0.000000 0.000000 0.000000 0
434 201 0.000000 0.000000 0.000000 0
436 201 0.000000 0.000000 0.000000 0
438 201 0.000000 0.000000 0.000000 0
440 201 0.000000 0.000000 0.000000 0
442 201 0.000000 0.000000 0.000000 0
444 201 0.000000 0.000000 0.000000 0
446 201 0.000000 0.000000 0.000000 0
308 203 0.000000 0.000000 0.000000 0
310 203 0.000000 0.000000 0.000000 0
312 203 0.000000 0.000000 0.000000 0
314 203 0.000000 0.000000 0.000000 0
316 203 0.223948 0.540247 0.042014 1
318 203 0.161792 0.582079 0.037348 1
320 203 0.093729 0.616809 0.041173 1
322 203 0.046252 0.625792 0.052804 1
324 203 0.012279 0.612050 0.067517 1
326 203 -0.016896 0.569293 0.088264 1
328 203 -0.034096 0.496822 0.127256 1
330 203 -0.030268 0.401689 0.180185 1
332 203 -0.012655 0.289252 0.232812 1
334 203 0.003126 0.173976 0.275644 1
336 203 0.019266 0.062619 0.299678 1
338 203 0.043138 -0.049315 0.305747 1
340 203 0.071975 -0.161140 0.307386 1
342 203 0.113285 -0.274908 0.305369 1
344 203 0.170241 -0.390491 0.298324 1
346 203 0.229406 -0.501703 0.288292 1
348 203 0.281555 -0.605488 0.266542 1
350 203 0.328346 -0.698045 0.229368 1
352 203 0.376705 -0.772669 0.180305 1
354 203 0.432948 -0.836281 0.124817 1
356 203 0.492829 -0.884430 0.063350 1
358 203 0.546723 -0.905249 -0.003644 1
360 203 0.594346 -0.911154 -0.070162 1
362 203 0.641554 -0.899509 -0.126373 1
364 203 0.688846 -0.878541 -0.170096 1
366 203 0.727896 -0.850367 -0.205857 1
368 203 0.755456 -0.809462 -0.238360 1
370 203 0.775948 -0.760260 -0.266224 1
372 203 0.792381 -0.704705 -0.278865 1
374 203 0.811436 -0.645869 -0.280921 1
376 203 0.834935 -0.583991 -0.278569 1
378 203 0.862275 -0.517618 -0.276023 1
380 203 0.890765 -0.448330 -0.271566 1
382 203 0.917952 -0.378028 -0.252069 1
384 203 0.943076 -0.308491 -0.221311 1
386 203 0.964535 -0.239740 -0.195813 1
388 203 0.982212 -0.169330 -0.185250 1
390 203 0.997312 -0.099757 -0.186707 1
392 203 1.004759 -0.035401 -0.187401 1
394 203 1.002554 0.027991 -0.181772 1
396 203 0.996294 0.092196 -0.173316 1
398 203 0.990303 0.157293 -0.165632 1
400 203 0.986889 0.227131 -0.157997 1
402 203 0.980820 0.297113 -0.154955 1
404 203 0.964385 0.362632 -0.158058 1
406 203 0.937433 0.419165 -0.162032 1
408 203 0.924386 0.439178 -0.162336 1
410 203 0.000000 0.000000 0.000000 0
412 203 0.000000 0.000000 0.000000 0
414 203 0.000000 0.000000 0.000000 0
416 203 0.000000 0.000000 0.000000 0
418 203 0.000000 0.000000 0.000000 0
420 203 0.000000 0.000000 0.000000 0
422 203 0.000000 0.000000 0.000000 0
424 203 0.000000 0.000000 0.000000 0
426 203 0.000000 0.000000 0.000000 0
428 203 0.000000 0.000000 0.000000 0
430 203 0.000000 0.000000 0.000000 0
432 203 0.000000 0.000000 0.000000 0
434 203 0.000000 0.000000 0.000000 0
436 203 0.000000 0.000000 0.000000 0
438 203 0.000000 0.000000 0.000000 0
440 203 0.000000 0.000000 0.000000 0
442 203 0.000000 0.000000 0.000000 0
444 203 0.000000 0.000000 0.000000 0
446 203 0.000000 0.000000 0.000000 0
308 205 0.000000 0.000000 0.000000 0
310 205 0.000000 0.000000 0.000000 0
312 205 0.000000 0.000000 0.000000 0
314 205 0.000000 0.000000 0.000000 0
316 205 0.307844 0.592600 0.047309 1
318 205 0.254234 0.634945 0.045509 1
320 205 0.206362 0.663796 0.061845 1
322 205 0.184738 0.662019 0.088330 1
324 205 0.176364 0.635174 0.118806 1
326 205 0.167984 0.578614 0.156446 1
328 205 0.167010 0.494113 0.212513 1
330 205 0.188464 0.388878 0.284989 1
332 205 0.218990 0.271837 0.350557 1
334 205 0.241391 0.156064 0.396779 1
336 205 0.258896 0.043708 0.417514 1
338 205 0.283335 -0.070157 0.417712 1
340 205 0.316399 -0.185117 0.412541 1
342 205 0.363414 -0.302637 0.404573 1
344 205 0.423922 -0.424515 0.388211 1
346 205 0.481589 -0.541950 0.371170 1
348 205 0.527922 -0.652182 0.344251 1
350 205 0.570834 -0.750337 0.305598 1
352 205 0.617621 -0.828684 0.257332 1
354 205 0.675070 -0.894314 0.205439 1
356 205 0.738926 -0.943094 0.151296 1
358 205 0.801559 -0.963104 0.100059 1
360 205 0.855276 -0.965944 0.046169 1
362 205 0.901773 -0.948252 0.000977 1
364 205 0.940903 -0.920149 -0.044006 1
366 205 0.968961 -0.885409 -0.093818 1
368 205 0.980203 -0.838756 -0.157581 1
370 205 0.981697 -0.788131 -0.215397 1
372 205 0.970188 -0.735157 -0.252630 1
374 205 0.963321 -0.678923 -0.267836 1
376 205 0.964328 -0.617398 -0.274918 1
378 205 0.974584 -0.549395 -0.280144 1
380 205 0.990878 -0.478144 -0.282704 1
382 205 1.006677 -0.405582 -0.269060 1
384 205 1.023493 -0.333660 -0.237605 1
386 205 1.036316 -0.261724 -0.205370 1
388 205 1.048961 -0.186936 -0.187891 1
390 205 1.061109 -0.111193 -0.187506 1
392 205 1.066546 -0.040199 -0.189631 1
394 205 1.062585 0.028483 -0.185344 1
396 205 1.055800 0.097015 -0.175512 1
398 205 1.051596 0.163952 -0.164332 1
400 205 1.052246 0.233849 -0.151866 1
402 205 1.050428 0.304549 -0.145429 1
404 205 1.038458 0.373013 -0.148105 1
406 205 1.016400 0.432921 -0.154028 1
408 205 1.004292 0.453824 -0.157035 1
410 205 0.000000 0.000000 0.000000 0
412 205 0.000000 0.000000 0.000000 0
414 205 0.000000 0.000000 0.000000 0
416 205 0.000000 0.000000 0.000000 0
418 205 0.000000 0.000000 0.000000 0
420 205 0.000000 0.000000 0.000000 0
422 205 0.000000 0.000000 0.000000 0
424 205 0.000000 0.000000 0.000000 0
426 205 0.000000 0.000000 0.000000 0
428 205 0.000000 0.000000 0.000000 0
430 205 0.000000 0.000000 0.000000 0
432 205 0.000000 0.000000 0.000000 0
434 205 0.000000 0.000000 0.000000 0
436 205 0.000000 0.000000 0.000000 0
438 205 0.000000 0.000000 0.000000 0
440 205 0.000000 0.000000 0.000000 0
442 205 0.000000 0.000000 0.000000 0
444 205 0.000000 0.000000 0.000000 0
446 205 0.000000 0.000000 0.000000 0
308 207 0.000000 0.000000 0.000000 0
310 207 0.000000 0.000000 0.000000 0
312 207 0.000000 0.000000 0.000000 0
314 207 0.000000 0.000000 0.000000 0
316 207 0.420839 0.632793 0.072787 1
318 207 0.376076 0.673520 0.079287 1
320 207 0.350877 0.694024 0.110744 1
322 207 0.358645 0.679730 0.154625 1
324 207 0.375280 0.641622 0.197997 1
326 207 0.384838 0.575675 0.244902 1
328 207 0.397895 0.482897 0.309280 1
330 207 0.427996 0.374818 0.386411 1
332 207 0.465629 0.258860 0.455186 1
334 207 0.490561 0.145404 0.501093 1
336 207 0.508096 0.033827 0.518238 1
338 207 0.530731 -0.081156 0.509398 1
340 207 0.561666 -0.197553 0.489232 1
342 207 0.606291 -0.317399 0.461465 1
344 207 0.663244 -0.443484 0.429784 1
346 207 0.715215 -0.567991 0.400957 1
348 207 0.755765 -0.684973 0.369510 1
350 207 0.794632 -0.790052 0.329583 1
352 207 0.839794 -0.873546 0.282516 1
354 207 0.897960 -0.941985 0.234116 1
356 207 0.966643 -0.991881 0.191920 1
358 207 1.036991 -1.010885 0.160962 1
360 207 1.101176 -1.010008 0.134344 1
362 207 1.152001 -0.985414 0.105955 1
364 207 1.189503 -0.948080 0.065854 1
366 207 1.211020 -0.903644 0.006484 1
368 207 1.212756 -0.848708 -0.073541 1
370 207 1.198691 -0.792488 -0.154635 1
372 207 1.170302 -0.739149 -0.208743 1
374 207 1.140401 -0.685677 -0.241667 1
376 207 1.120483 -0.627875 -0.261091 1
378 207 1.110274 -0.564397 -0.276255 1
380 207 1.107861 -0.497281 -0.288119 1
382 207 1.108260 -0.427650 -0.283360 1
384 207 1.109712 -0.356555 -0.258577 1
386 207 1.111437 -0.282810 -0.226953 1
388 207 1.115606 -0.203025 -0.206729 1
390 207 1.124380 -0.120569 -0.203571 1
392 207 1.129352 -0.043003 -0.202804 1
394 207 1.126211 0.030998 -0.196447 1
396 207 1.120007 0.102671 -0.185596 1
398 207 1.116654 0.171716 -0.172749 1
400 207 1.118323 0.242182 -0.158013 1
402 207 1.118152 0.313510 -0.147777 1
404 207 1.108164 0.383763 -0.147078 1
406 207 1.087640 0.445522 -0.150917 1
408 207 1.075838 0.467084 -0.153577 1
410 207 0.000000 0.000000 0.000000 0
412 207 0.000000 0.000000 0.000000 0
414 207 0.000000 0.000000 0.000000 0
416 207 0.000000 0.000000 0.000000 0
418 207 0.000000 0.000000 0.000000 0
420 207 0.000000 0.000000 0.000000 0
422 207 0.000000 0.000000 0.000000 0
424 207 0.000000 0.000000 0.000000 0
426 207 0.000000 0.000000 0.000000 0
428 207 0.000000 0.000000 0.000000 0
430 207 0.000000 0.000000 0.000000 0
432 207 0.000000 0.000000 0.000000 0
434 207 0.000000 0.000000 0.000000 0
436 207 0.000000 0.000000 0.000000 0
438 207 0.000000 0.000000 0.000000 0
440 207 0.000000 0.000000 0.000000 0
442 207 0.000000 0.000000 0.000000 0
444 207 0.000000 0.000000 0.000000 0
446 207 0.000000 0.000000 0.000000 0
308 209 0.000000 0.000000 0.000000 0
310 209 0.000000 0.000000 0.000000 0
312 209 0.000000 0.000000 0.000000 0
314 209 0.000000 0.000000 0.000000 0
316 209 0.595331 0.652673 0.119446 1
318 209 0.567002 0.689870 0.134864 1
320 209 0.568137 0.701112 0.180778 1
322 209 0.598498 0.678298 0.233479 1
324 209 0.636221 0.632737 0.281753 1
326 209 0.658921 0.561837 0.329410 1
328 209 0.679131 0.466754 0.390487 1
330 209 0.711736 0.361305 0.458975 1
332 209 0.750477 0.249630 0.519136 1
334 209 0.776616 0.139723 0.555598 1
336 209 0.793455 0.028590 0.564915 1
338 209 0.811398 -0.087480 0.543187 1
340 209 0.834368 -0.204962 0.506198 1
342 209 0.870476 -0.326153 0.462377 1
344 209 0.921340 -0.456443 0.420583 1
346 209 0.970117 -0.586904 0.388279 1
348 209 1.008801 -0.712333 0.358022 1
350 209 1.046612 -0.824773 0.320084 1
352 209 1.089723 -0.914539 0.275057 1
354 209 1.144918 -0.986493 0.228540 1
356 209 1.211083 -1.036950 0.191430 1
358 209 1.279472 -1.052123 0.173239 1
360 209 1.344573 -1.044663 0.158529 1
362 209 1.394844 -1.007882 0.133663 1
364 209 1.429415 -0.958276 0.091693 1
366 209 1.445471 -0.901868 0.034024 1
368 209 1.441071 -0.836931 -0.033987 1
370 209 1.422570 -0.773393 -0.100742 1
372 209 1.390409 -0.714649 -0.146614 1
374 209 1.352756 -0.660206 -0.184826 1
376 209 1.316677 -0.606648 -0.217925 1
378 209 1.285691 -0.551826 -0.246086 1
380 209 1.259753 -0.494918 -0.270765 1
382 209 1.236722 -0.434135 -0.279765 1
384 209 1.218815 -0.368117 -0.266187 1
386 209 1.201934 -0.295742 -0.242240 1
388 209 1.195614 -0.213671 -0.222676 1
390 209 1.198262 -0.126072 -0.215757 1
392 209 1.202188 -0.042704 -0.211294 1
394 209 1.199508 0.036364 -0.204257 1
396 209 1.192374 0.111782 -0.196525 1
398 209 1.187011 0.182979 -0.186822 1
400 209 1.184985 0.254715 -0.174151 1
402 209 1.181999 0.326450 -0.162352 1
404 209 1.169292 0.396615 -0.156848 1
406 209 1.147015 0.457624 -0.154687 1
408 209 1.135578 0.478815 -0.155369 1
410 209 0.000000 0.000000 0.000000 0
412 209 0.000000 0.000000 0.000000 0
414 209 0.000000 0.000000 0.000000 0
416 209 0.000000 0.000000 0.000000 0
418 209 0.000000 0.000000 0.000000 0
420 209 0.000000 0.000000 0.000000 0
422 209 0.000000 0.000000 0.000000 0
424 209 0.000000 0.000000 0.000000 0
426 209 0.000000 0.000000 0.000000 0
428 209 0.000000 0.000000 0.000000 0
430 209 0.000000 0.000000 0.000000 0
432 209 0.000000 0.000000 0.000000 0
434 209 0.000000 0.000000 0.000000 0
436 209 0.000000 0.000000 0.000000 0
438 209 0.000000 0.000000 0.000000 0
440 209 0.000000 0.000000 0.000000 0
442 209 0.000000 0.000000 0.000000 0
444 209 0.000000 0.000000 0.000000 0
446 209 0.000000 0.000000 0.000000 0
308 211 0.000000 0.000000 0.000000 0
310 211 0.000000 0.000000 0.000000 0
312 211 0.000000 0.000000 0.000000 0
314 211 0.000000 0.000000 0.000000 0
316 211 0.804165 0.658408 0.170206 1
318 211 0.793756 0.692726 0.195445 1
320 211 0.812983 0.698424 0.249381 1
322 211 0.864865 0.668230 0.306700 1
324 211 0.919625 0.617781 0.355204 1
326 211 0.955959 0.543839 0.399727 1
328 211 0.982175 0.449004 0.452721 1
330 211 1.015425 0.347607 0.507233 1
332 211 1.054203 0.241576 0.549880 1
334 211 1.082080 0.135125 0.570591 1
336 211 1.100455 0.024961 0.563821 1
338 211 1.116708 -0.092463 0.529018 1
340 211 1.135416 -0.212399 0.480567 1
342 211 1.166164 -0.336257 0.429280 1
344 211 1.214730 -0.470186 0.386497 1
346 211 1.263528 -0.606398 0.356292 1
348 211 1.304265 -0.738604 0.331214 1
350 211 1.344401 -0.860053 0.300897 1
352 211 1.386756 -0.956828 0.262298 1
354 211 1.436489 -1.033532 0.221165 1
356 211 1.493579 -1.084544 0.187555 1
358 211 1.549815 -1.094830 0.172237 1
360 211 1.603536 -1.078161 0.160163 1
362 211 1.644351 -1.030481 0.132756 1
364 211 1.668484 -0.967493 0.089648 1
366 211 1.675817 -0.900268 0.039462 1
368 211 1.665197 -0.825586 -0.007265 1
370 211 1.646039 -0.752407 -0.046071 1
372 211 1.618968 -0.684219 -0.074397 1
374 211 1.584302 -0.621896 -0.108589 1
376 211 1.542360 -0.567137 -0.149858 1
378 211 1.494114 -0.518366 -0.191642 1
380 211 1.445494 -0.471291 -0.229518 1
382 211 1.397528 -0.420840 -0.254015 1
384 211 1.354753 -0.363404 -0.257728 1
386 211 1.318215 -0.296426 -0.246447 1
388 211 1.294510 -0.217774 -0.230924 1
390 211 1.287468 -0.130186 -0.220366 1
392 211 1.285486 -0.043511 -0.211914 1
394 211 1.280190 0.040321 -0.206126 1
396 211 1.269643 0.120227 -0.204512 1
398 211 1.259546 0.194868 -0.202292 1
400 211 1.251681 0.268305 -0.194916 1
402 211 1.242177 0.340775 -0.184367 1
404 211 1.225201 0.410325 -0.174393 1
406 211 1.200965 0.469576 -0.163038 1
408 211 1.190945 0.490165 -0.157972 1
410 211 0.000000 0.000000 0.000000 0
412 211 0.000000 0.000000 0.000000 0
414 211 0.000000 0.000000 0.000000 0
416 211 0.000000 0.000000 0.000000 0
418 211 0.000000 0.000000 0.000000 0
420 211 0.000000 0.000000 0.000000 0
422 211 0.000000 0.000000 0.000000 0
424 211 0.000000 0.000000 0.000000 0
426 211 0.000000 0.000000 0.000000 0
428 211 0.000000 0.000000 0.000000 0
430 211 0.000000 0.000000 0.000000 0
432 211 0.000000 0.000000 0.000000 0
434 211 0.000000 0.000000 0.000000 0
436 211 0.000000 0.000000 0.000000 0
438 211 0.000000 0.000000 0.000000 0
440 211 0.000000 0.000000 0.000000 0
442 211 0.000000 0.000000 0.000000 0
444 211 0.000000 0.000000 0.000000 0
446 211 0.000000 0.000000 0.000000 0
308 213 0.000000 0.000000 0.000000 0
310 213 0.000000 0.000000 0.000000 0
312 213 0.000000 0.000000 0.000000 0
314 213 0.000000 0.000000 0.000000 0
316 213 1.035655 0.649068 0.193332 1
318 213 1.036035 0.682304 0.225866 1
320 213 1.069721 0.683744 0.286152 1
322 213 1.133097 0.649123 0.345529 1
324 213 1.202021 0.594482 0.393127 1
326 213 1.247785 0.519565 0.433969 1
328 213 1.278555 0.427268 0.477957 1
330 213 1.311402 0.330941 0.518944 1
332 213 1.349774 0.229806 0.545143 1
334 213 1.380498 0.127164 0.545430 1
336 213 1.402503 0.018298 0.521821 1
338 213 1.422623 -0.100594 0.473932 1
340 213 1.443773 -0.223551 0.420762 1
342 213 1.475168 -0.350971 0.369279 1
344 213 1.522321 -0.487346 0.328121 1
346 213 1.570012 -0.625888 0.300268 1
348 213 1.611313 -0.762736 0.282266 1
350 213 1.652899 -0.890353 0.261168 1
352 213 1.693346 -0.993940 0.233563 1
354 213 1.735145 -1.073362 0.199633 1