TITLE = "B00025"
VARIABLES = "X", "Y", "Vx", "Vy", "Vz", "flag"
ZONE T="B00025", I=70, J=78
308 191 0.000000 0.000000 0.000000 0
310 191 0.000000 0.000000 0.000000 0
312 191 0.000000 0.000000 0.000000 0
314 191 0.000000 0.000000 0.000000 0
316 191 0.000000 0.000000 0.000000 0
318 191 0.000000 0.000000 0.000000 0
320 191 0.000000 0.000000 0.000000 0
322 191 0.000000 0.000000 0.000000 0
324 191 0.000000 0.000000 0.000000 0
326 191 0.000000 0.000000 0.000000 0
328 191 0.000000 0.000000 0.000000 0
330 191 0.000000 0.000000 0.000000 0
332 191 0.000000 0.000000 0.000000 0
334 191 0.000000 0.000000 0.000000 0
336 191 0.000000 0.000000 0.000000 0
338 191 0.000000 0.000000 0.000000 0
340 191 0.000000 0.000000 0.000000 0
342 191 0.000000 0.000000 0.000000 0
344 191 0.000000 0.000000 0.000000 0
346 191 0.000000 0.000000 0.000000 0
348 191 0.000000 0.000000 0.000000 0
350 191 0.000000 0.000000 0.000000 0
352 191 0.000000 0.000000 0.000000 0
354 191 0.000000 0.000000 0.000000 0
356 191 0.000000 0.000000 0.000000 0
358 191 0.000000 0.000000 0.000000 0
360 191 0.000000 0.000000 0.000000 0
362 191 0.000000 0.000000 0.000000 0
364 191 0.000000 0.000000 0.000000 0
366 191 0.000000 0.000000 0.000000 0
368 191 0.000000 0.000000 0.000000 0
370 191 0.000000 0.000000 0.000000 0
372 191 0.000000 0.000000 0.000000 0
374 191 0.000000 0.000000 0.000000 0
376 191 0.000000 0.000000 0.000000 0
378 191 0.000000 0.000000 0.000000 0
380 191 0.000000 0.000000 0.000000 0
382 191 0.000000 0.000000 0.000000 0
384 191 0.000000 0.000000 0.000000 0
386 191 0.000000 0.000000 0.000000 0
388 191 0.000000 0.000000 0.000000 0
390 191 0.000000 0.000000 0.000000 0
392 191 0.000000 0.000000 0.000000 0
394 191 0.000000 0.000000 0.000000 0
396 191 0.000000 0.000000 0.000000 0
398 191 0.000000 0.000000 0.000000 0
400 191 0.000000 0.000000 0.000000 0
402 191 0.000000 0.000000 0.000000 0
404 191 0.000000 0.000000 0.000000 0
406 191 0.000000 0.000000 0.000000 0
408 191 0.000000 0.000000 0.000000 0
410 191 0.000000 0.000000 0.000000 0
412 191 0.000000 0.000000 0.000000 0
414 191 0.000000 0.000000 0.000000 0
416 191 0.000000 0.000000 0.000000 0
418 191 0.000000 0.000000 0.000000 0
420 191 0.000000 0.000000 0.000000 0
422 191 0.000000 0.000000 0.000000 0
424 191 0.000000 0.000000 0.000000 0
426 191 0.000000 0.000000 0.000000 0
428 191 0.000000 0.000000 0.000000 0
430 191 0.000000 0.000000 0.000000 0
432 191 0.000000 0.000000 0.000000 0
434 191 0.000000 0.000000 0.000000 0
436 191 0.000000 0.000000 0.000000 0
438 191 0.000000 0.000000 0.000000 0
440 191 0.000000 0.000000 0.000000 0
442 191 0.000000 0.000000 0.000000 0
444 191 0.000000 0.000000 0.000000 0
446 191 0.000000 0.000000 0.000000 0
308 193 0.000000 0.000000 0.000000 0
310 193 0.000000 0.000000 0.000000 0
312 193 0.000000 0.000000 0.000000 0
314 193 0.000000 0.000000 0.000000 0
316 193 0.000000 0.000000 0.000000 0
318 193 0.000000 0.000000 0.000000 0
320 193 0.000000 0.000000 0.000000 0
322 193 0.000000 0.000000 0.000000 0
324 193 0.000000 0.000000 0.000000 0
326 193 0.000000 0.000000 0.000000 0
328 193 0.000000 0.000000 0.000000 0
330 193 0.000000 0.000000 0.000000 0
332 193 0.000000 0.000000 0.000000 0
334 193 0.000000 0.000000 0.000000 0
336 193 0.000000 0.000000 0.000000 0
338 193 0.000000 0.000000 0.000000 0
340 193 0.000000 0.000000 0.000000 0
342 193 0.000000 0.000000 0.000000 0
344 193 0.000000 0.000000 0.000000 0
346 193 0.000000 0.000000 0.000000 0
348 193 0.000000 0.000000 0.000000 0
350 193 0.000000 0.000000 0.000000 0
352 193 0.000000 0.000000 0.000000 0
354 193 0.000000 0.000000 0.000000 0
356 193 0.000000 0.000000 0.000000 0
358 193 0.000000 0.000000 0.000000 0
360 193 0.000000 0.000000 0.000000 0
362 193 0.000000 0.000000 0.000000 0
364 193 0.000000 0.000000 0.000000 0
366 193 0.000000 0.000000 0.000000 0
368 193 0.000000 0.000000 0.000000 0
370 193 0.000000 0.000000 0.000000 0
372 193 0.000000 0.000000 0.000000 0
374 193 0.000000 0.000000 0.000000 0
376 193 0.000000 0.000000 0.000000 0
378 193 0.000000 0.000000 0.000000 0
380 193 0.000000 0.000000 0.000000 0
382 193 0.000000 0.000000 0.000000 0
384 193 0.000000 0.000000 0.000000 0
386 193 0.000000 0.000000 0.000000 0
388 193 0.000000 0.000000 0.000000 0
390 193 0.000000 0.000000 0.000000 0
392 193 0.000000 0.000000 0.000000 0
394 193 0.000000 0.000000 0.000000 0
396 193 0.000000 0.000000 0.000000 0
398 193 0.000000 0.000000 0.000000 0
400 193 0.000000 0.000000 0.000000 0
402 193 0.000000 0.000000 0.000000 0
404 193 0.000000 0.000000 0.000000 0
406 193 0.000000 0.000000 0.000000 0
408 193 0.000000 0.000000 0.000000 0
410 193 0.000000 0.000000 0.000000 0
412 193 0.000000 0.000000 0.000000 0
414 193 0.000000 0.000000 0.000000 0
416 193 0.000000 0.000000 0.000000 0
418 193 0.000000 0.000000 0.000000 0
420 193 0.000000 0.000000 0.000000 0
422 193 0.000000 0.000000 0.000000 0
424 193 0.000000 0.000000 0.000000 0
426 193 0.000000 0.000000 0.000000 0
428 193 0.000000 0.000000 0.000000 0
430 193 0.000000 0.000000 0.000000 0
432 193 0.000000 0.000000 0.000000 0
434 193 0.000000 0.000000 0.000000 0
436 193 0.000000 0.000000 0.000000 0
438 193 0.000000 0.000000 0.000000 0
440 193 0.000000 0.000000 0.000000 0
442 193 0.000000 0.000000 0.000000 0
444 193 0.000000 0.000000 0.000000 0
446 193 0.000000 0.000000 0.000000 0
308 195 0.000000 0.000000 0.000000 0
310 195 0.000000 0.000000 0.000000 0
312 195 0.000000 0.000000 0.000000 0
314 195 0.000000 0.000000 0.000000 0
316 195 0.000000 0.000000 0.000000 0
318 195 0.000000 0.000000 0.000000 0
320 195 0.000000 0.000000 0.000000 0
322 195 0.000000 0.000000 0.000000 0
324 195 0.000000 0.000000 0.000000 0
326 195 0.000000 0.000000 0.000000 0
328 195 0.000000 0.000000 0.000000 0
330 195 0.000000 0.000000 0.000000 0
332 195 0.000000 0.000000 0.000000 0
334 195 0.000000 0.000000 0.000000 0
336 195 0.000000 0.000000 0.000000 0
338 195 0.000000 0.000000 0.000000 0
340 195 0.000000 0.000000 0.000000 0
342 195 0.000000 0.000000 0.000000 0
344 195 0.000000 0.000000 0.000000 0
346 195 0.000000 0.000000 0.000000 0
348 195 0.000000 0.000000 0.000000 0
350 195 0.000000 0.000000 0.000000 0
352 195 0.000000 0.000000 0.000000 0
354 195 0.000000 0.000000 0.000000 0
356 195 0.000000 0.000000 0.000000 0
358 195 0.000000 0.000000 0.000000 0
360 195 0.000000 0.000000 0.000000 0
362 195 0.000000 0.000000 0.000000 0
364 195 0.000000 0.000000 0.000000 0
366 195 0.000000 0.000000 0.000000 0
368 195 0.000000 0.000000 0.000000 0
370 195 0.000000 0.000000 0.000000 0
372 195 0.000000 0.000000 0.000000 0
374 195 0.000000 0.000000 0.000000 0
376 195 0.000000 0.000000 0.000000 0
378 195 0.000000 0.000000 0.000000 0
380 195 0.000000 0.000000 0.000000 0
382 195 0.000000 0.000000 0.000000 0
384 195 0.000000 0.000000 0.000000 0
386 195 0.000000 0.000000 0.000000 0
388 195 0.000000 0.000000 0.000000 0
390 195 0.000000 0.000000 0.000000 0
392 195 0.000000 0.000000 0.000000 0
394 195 0.000000 0.000000 0.000000 0
396 195 0.000000 0.000000 0.000000 0
398 195 0.000000 0.000000 0.000000 0
400 195 0.000000 0.000000 0.000000 0
402 195 0.000000 0.000000 0.000000 0
404 195 0.000000 0.000000 0.000000 0
406 195 0.000000 0.000000 0.000000 0
408 195 0.000000 0.000000 0.000000 0
410 195 0.000000 0.000000 0.000000 0
412 195 0.000000 0.000000 0.000000 0
414 195 0.000000 0.000000 0.000000 0
416 195 0.000000 0.000000 0.000000 0
418 195 0.000000 0.000000 0.000000 0
420 195 0.000000 0.000000 0.000000 0
422 195 0.000000 0.000000 0.000000 0
424 195 0.000000 0.000000 0.000000 0
426 195 0.000000 0.000000 0.000000 0
428 195 0.000000 0.000000 0.000000 0
430 195 0.000000 0.000000 0.000000 0
432 195 0.000000 0.000000 0.000000 0
434 195 0.000000 0.000000 0.000000 0
436 195 0.000000 0.000000 0.000000 0
438 195 0.000000 0.000000 0.000000 0
440 195 0.000000 0.000000 0.000000 0
442 195 0.000000 0.000000 0.000000 0
444 195 0.000000 0.000000 0.000000 0
446 195 0.000000 0.000000 0.000000 0
308 197 0.000000 0.000000 0.000000 0
310 197 0.000000 0.000000 0.000000 0
312 197 0.000000 0.000000 0.000000 0
314 197 0.000000 0.000000 0.000000 0
316 197 0.000000 0.000000 0.000000 0
318 197 0.080754 0.387683 -0.006953 1
320 197 0.034969 0.370292 -0.018836 1
322 197 -0.020333 0.391173 -0.004686 1
324 197 -0.077089 0.414312 -0.016937 1
326 197 -0.132882 0.417898 -0.044522 1
328 197 -0.187473 0.397233 -0.071690 1
330 197 -0.235722 0.355524 -0.090801 1
332 197 -0.274697 0.298367 -0.097841 1
334 197 -0.305450 0.235048 -0.080564 1
336 197 -0.323916 0.167798 -0.056852 1
338 197 -0.335161 0.092709 -0.042077 1
340 197 -0.347157 0.009353 -0.039205 1
342 197 -0.355225 -0.079718 -0.048631 1
344 197 -0.344616 -0.171841 -0.063884 1
346 197 -0.315889 -0.259962 -0.075612 1
348 197 -0.274643 -0.345404 -0.088971 1
350 197 -0.231402 -0.427294 -0.105015 1
352 197 -0.181749 -0.500616 -0.112899 1
354 197 -0.121893 -0.569100 -0.117256 1
356 197 -0.058148 -0.622143 -0.125836 1
358 197 0.001021 -0.648237 -0.147747 1
360 197 0.058744 -0.662443 -0.173103 1
362 197 0.126452 -0.664627 -0.199132 1
364 197 0.201926 -0.661875 -0.219079 1
366 197 0.273679 -0.656289 -0.221693 1
368 197 0.337083 -0.640158 -0.201200 1
370 197 0.402514 -0.616294 -0.171258 1
372 197 0.475981 -0.581681 -0.158968 1
374 197 0.550629 -0.541604 -0.164915 1
376 197 0.612536 -0.497908 -0.177762 1
378 197 0.654353 -0.447473 -0.184742 1
380 197 0.680447 -0.391020 -0.183641 1
382 197 0.700803 -0.331517 -0.175013 1
384 197 0.724443 -0.275247 -0.169830 1
386 197 0.750371 -0.221864 -0.178684 1
388 197 0.769318 -0.166304 -0.190506 1
390 197 0.780007 -0.110775 -0.194262 1
392 197 0.784582 -0.059057 -0.187699 1
394 197 0.785498 -0.009515 -0.180827 1
396 197 0.783624 0.041701 -0.184655 1
398 197 0.774264 0.098049 -0.196042 1
400 197 0.757977 0.166780 -0.202764 1
402 197 0.739927 0.236180 -0.200622 1
404 197 0.785564 0.264580 -0.197690 1
406 197 0.000000 0.000000 0.000000 0
408 197 0.000000 0.000000 0.000000 0
410 197 0.000000 0.000000 0.000000 0
412 197 0.000000 0.000000 0.000000 0
414 197 0.000000 0.000000 0.000000 0
416 197 0.000000 0.000000 0.000000 0
418 197 0.000000 0.000000 0.000000 0
420 197 0.000000 0.000000 0.000000 0
422 197 0.000000 0.000000 0.000000 0
424 197 0.000000 0.000000 0.000000 0
426 197 0.000000 0.000000 0.000000 0
428 197 0.000000 0.000000 0.000000 0
430 197 0.000000 0.000000 0.000000 0
432 197 0.000000 0.000000 0.000000 0
434 197 0.000000 0.000000 0.000000 0
436 197 0.000000 0.000000 0.000000 0
438 197 0.000000 0.000000 0.000000 0
440 197 0.000000 0.000000 0.000000 0
442 197 0.000000 0.000000 0.000000 0
444 197 0.000000 0.000000 0.000000 0
446 197 0.000000 0.000000 0.000000 0
308 199 0.000000 0.000000 0.000000 0
310 199 0.000000 0.000000 0.000000 0
312 199 0.000000 0.000000 0.000000 0
314 199 0.000000 0.000000 0.000000 0
316 199 0.180560 0.418612 0.027951 1
318 199 0.122343 0.431306 0.023273 1
320 199 0.058064 0.463934 0.038038 1
322 199 -0.001304 0.488521 0.046985 1
324 199 -0.061005 0.509486 0.036326 1
326 199 -0.117881 0.507284 0.016911 1
328 199 -0.171682 0.477259 0.003958 1
330 199 -0.215775 0.421876 0.001896 1
332 199 -0.248992 0.346910 0.010378 1
334 199 -0.269656 0.262116 0.038318 1
336 199 -0.276083 0.177089 0.065010 1
338 199 -0.268981 0.083693 0.077783 1
340 199 -0.263548 -0.013276 0.077928 1
342 199 -0.252987 -0.115461 0.066805 1
344 199 -0.226801 -0.219700 0.052750 1
346 199 -0.187136 -0.319824 0.041852 1
348 199 -0.139735 -0.417270 0.025565 1
350 199 -0.093132 -0.506902 0.000038 1
352 199 -0.040317 -0.585484 -0.029741 1
354 199 0.021625 -0.657410 -0.060178 1
356 199 0.085973 -0.714851 -0.097198 1
358 199 0.143219 -0.745373 -0.141401 1
360 199 0.197772 -0.761849 -0.182320 1
362 199 0.261392 -0.763599 -0.218497 1
364 199 0.333029 -0.758804 -0.244145 1
366 199 0.399276 -0.749231 -0.255132 1
368 199 0.455444 -0.727524 -0.248317 1
370 199 0.510124 -0.695950 -0.234199 1
372 199 0.568169 -0.651938 -0.227475 1
374 199 0.628349 -0.603037 -0.227478 1
376 199 0.679223 -0.551898 -0.227482 1
378 199 0.718691 -0.497820 -0.226359 1
380 199 0.748934 -0.439172 -0.222866 1
382 199 0.775175 -0.376736 -0.214584 1
384 199 0.802475 -0.314818 -0.207799 1
386 199 0.828944 -0.253392 -0.211569 1
388 199 0.848866 -0.190825 -0.220023 1
390 199 0.862805 -0.129052 -0.222960 1
392 199 0.870279 -0.073079 -0.214979 1
394 199 0.873040 -0.018986 -0.201423 1
396 199 0.872159 0.036406 -0.195468 1
398 199 0.864846 0.095945 -0.197915 1
400 199 0.852474 0.165702 -0.200491 1
402 199 0.838209 0.235316 -0.198873 1
404 199 0.817447 0.296743 -0.191154 1
406 199 0.855586 0.323442 -0.183484 1
408 199 0.000000 0.000000 0.000000 0
410 199 0.000000 0.000000 0.000000 0
412 199 0.000000 0.000000 0.000000 0
414 199 0.000000 0.000000 0.000000 0
416 199 0.000000 0.000000 0.000000 0
418 199 0.000000 0.000000 0.000000 0
420 199 0.000000 0.000000 0.000000 0
422 199 0.000000 0.000000 0.000000 0
424 199 0.000000 0.000000 0.000000 0
426 199 0.000000 0.000000 0.000000 0
428 199 0.000000 0.000000 0.000000 0
430 199 0.000000 0.000000 0.000000 0
432 199 0.000000 0.000000 0.000000 0
434 199 0.000000 0.000000 0.000000 0
436 199 0.000000 0.000000 0.000000 0
438 199 0.000000 0.000000 0.000000 0
440 199 0.000000 0.000000 0.000000 0
442 199 0.000000 0.000000 0.000000 0
444 199 0.000000 0.000000 0.000000 0
446 199 0.000000 0.000000 0.000000 0
308 201 0.000000 0.000000 0.000000 0
310 201 0.000000 0.000000 0.000000 0
312 201 0.000000 0.000000 0.000000 0
314 201 0.000000 0.000000 0.000000 0
316 201 0.213484 0.465374 0.042817 1
318 201 0.156775 0.506972 0.046132 1
320 201 0.084892 0.549627 0.050528 1
322 201 0.023866 0.576503 0.054343 1
324 201 -0.030961 0.590336 0.049389 1
326 201 -0.078554 0.575288 0.047452 1
328 201 -0.120988 0.532823 0.056137 1
330 201 -0.146868 0.461375 0.082286 1
332 201 -0.161912 0.368707 0.113661 1
334 201 -0.166940 0.266891 0.154100 1
336 201 -0.161107 0.165961 0.185809 1
338 201 -0.143949 0.061961 0.200401 1
340 201 -0.124526 -0.044445 0.206155 1
342 201 -0.100185 -0.154034 0.203675 1
344 201 -0.060347 -0.267074 0.200507 1
346 201 -0.012541 -0.377466 0.195761 1
348 201 0.036127 -0.484269 0.178515 1
350 201 0.082009 -0.581690 0.144197 1
352 201 0.133278 -0.663950 0.099721 1
354 201 0.193321 -0.738797 0.048575 1
356 201 0.256306 -0.799808 -0.006637 1
358 201 0.312900 -0.834917 -0.066704 1
360 201 0.365550 -0.853973 -0.123590 1
362 201 0.424756 -0.854150 -0.172767 1
364 201 0.489021 -0.844853 -0.209923 1
366 201 0.547877 -0.830158 -0.231553 1
368 201 0.593372 -0.802041 -0.243878 1
370 201 0.634416 -0.764744 -0.248921 1
372 201 0.670959 -0.715948 -0.254360 1
374 201 0.709244 -0.661848 -0.256543 1
376 201 0.745596 -0.606491 -0.255200 1
378 201 0.778670 -0.548192 -0.252898 1
380 201 0.810221 -0.486604 -0.249926 1
382 201 0.840414 -0.420309 -0.239191 1
384 201 0.869978 -0.353336 -0.225163 1
386 201 0.896207 -0.285831 -0.217819 1
388 201 0.917012 -0.217094 -0.218830 1
390 201 0.933280 -0.150316 -0.221424 1
392 201 0.943123 -0.088316 -0.217539 1
394 201 0.946525 -0.028785 -0.205435 1
396 201 0.945683 0.032462 -0.195834 1
398 201 0.940320 0.095409 -0.191554 1
400 201 0.932155 0.165702 -0.188489 1
402 201 0.922702 0.235526 -0.185769 1
404 201 0.905884 0.299018 -0.182510 1
406 201 0.880819 0.354417 -0.175424 1
408 201 0.914087 0.377045 -0.168641 1
410 201 0.000000 0.000000 0.000000 0
412 201 0.000000 0.000000 0.000000 0
414 201 0.000000 0.000000 0.000000 0
416 201 0.000000 0.000000 0.000000 0
418 201 0.000000 0.000000 0.000000 0
420 201 0.000000 0.000000 0.000000 0
422 201 0.000000 0.000000 0.000000 0
424 201 0.000000 0.000000 0.000000 0
426 201 0.000000 0.000000 0.000000 0
428 201 0.000000 0.000000 0.000000 0
430 201 0.000000 0.000000 0.000000 0
432 201 0.000000 0.000000 0.000000 0
434 201 0.000000 0.000000 0.000000 0
436 201 0.000000 0.000000 0.000000 0
438 201 0.000000 0.000000 0.000000 0
440 201 0.000000 0.000000 0.000000 0
442 201 0.000000 0.000000 0.000000 0
444 201 0.000000 0.000000 0.000000 0
446 201 0.000000 0.000000 0.000000 0
308 203 0.000000 0.000000 0.000000 0
310 203 0.000000 0.000000 0.000000 0
312 203 0.000000 0.000000 0.000000 0
314 203 0.000000 0.000000 0.000000 0
316 203 0.274127 0.520842 0.046237 1
318 203 0.213108 0.569770 0.041833 1
320 203 0.141988 0.618317 0.042554 1
322 203 0.088625 0.643151 0.048992 1
324 203 0.048708 0.645264 0.057712 1
326 203 0.015060 0.617219 0.073839 1
328 203 -0.008039 0.558194 0.110061 1
330 203 -0.013163 0.472307 0.162323 1
332 203 -0.004453 0.364688 0.217415 1
334 203 0.006932 0.252104 0.266671 1
336 203 0.021450 0.143130 0.299556 1
338 203 0.045193 0.033225 0.315391 1
340 203 0.073316 -0.076739 0.327402 1
342 203 0.110711 -0.190390 0.336876 1
344 203 0.159885 -0.308633 0.340832 1
346 203 0.211285 -0.426152 0.338062 1
348 203 0.256549 -0.539928 0.317516 1
350 203 0.298352 -0.643257 0.278409 1
352 203 0.345793 -0.729965 0.226117 1
354 203 0.403684 -0.807370 0.167551 1
356 203 0.466462 -0.871217 0.105192 1
358 203 0.526071 -0.908849 0.041362 1
360 203 0.581323 -0.928721 -0.020567 1
362 203 0.637543 -0.925193 -0.074663 1
364 203 0.694386 -0.910070 -0.117956 1
366 203 0.742993 -0.888186 -0.152042 1
368 203 0.778152 -0.854547 -0.185169 1
370 203 0.802586 -0.813274 -0.218337 1
372 203 0.815688 -0.763900 -0.243325 1
374 203 0.826606 -0.709693 -0.258486 1
376 203 0.840603 -0.652737 -0.265501 1
378 203 0.861020 -0.591570 -0.268618 1
380 203 0.886494 -0.526271 -0.269556 1
382 203 0.914417 -0.457010 -0.257887 1
384 203 0.941279 -0.386308 -0.236163 1
386 203 0.963584 -0.315154 -0.217098 1
388 203 0.981826 -0.242240 -0.207791 1
390 203 0.997758 -0.170048 -0.207713 1
392 203 1.007677 -0.101911 -0.207660 1
394 203 1.009756 -0.034221 -0.201866 1
396 203 1.007647 0.033055 -0.193718 1
398 203 1.003373 0.099673 -0.185876 1
400 203 0.999413 0.169488 -0.176714 1
402 203 0.994611 0.238665 -0.170054 1
404 203 0.983540 0.303510 -0.167560 1
406 203 0.964649 0.361142 -0.165713 1
408 203 0.955378 0.382404 -0.164965 1
410 203 0.000000 0.000000 0.000000 0
412 203 0.000000 0.000000 0.000000 0
414 203 0.000000 0.000000 0.000000 0
416 203 0.000000 0.000000 0.000000 0
418 203 0.000000 0.000000 0.000000 0
420 203 0.000000 0.000000 0.000000 0
422 203 0.000000 0.000000 0.000000 0
424 203 0.000000 0.000000 0.000000 0
426 203 0.000000 0.000000 0.000000 0
428 203 0.000000 0.000000 0.000000 0
430 203 0.000000 0.000000 0.000000 0
432 203 0.000000 0.000000 0.000000 0
434 203 0.000000 0.000000 0.000000 0
436 203 0.000000 0.000000 0.000000 0
438 203 0.000000 0.000000 0.000000 0
440 203 0.000000 0.000000 0.000000 0
442 203 0.000000 0.000000 0.000000 0
444 203 0.000000 0.000000 0.000000 0
446 203 0.000000 0.000000 0.000000 0
308 205 0.000000 0.000000 0.000000 0
310 205 0.000000 0.000000 0.000000 0
312 205 0.000000 0.000000 0.000000 0
314 205 0.000000 0.000000 0.000000 0
316 205 0.359622 0.567649 0.053661 1
318 205 0.305153 0.619850 0.048445 1
320 205 0.250011 0.666209 0.058328 1
322 205 0.217791 0.682215 0.079534 1
324 205 0.199968 0.671786 0.105770 1
326 205 0.185244 0.630398 0.139206 1
328 205 0.178087 0.559635 0.191166 1
330 205 0.192228 0.462621 0.260768 1
332 205 0.217032 0.348692 0.326833 1
334 205 0.239294 0.234005 0.378158 1
336 205 0.258963 0.123037 0.408633 1
338 205 0.286349 0.011230 0.421863 1
340 205 0.321218 -0.100386 0.431561 1
342 205 0.365370 -0.215509 0.437533 1
344 205 0.417616 -0.337366 0.431094 1
346 205 0.466260 -0.459644 0.419604 1
348 205 0.504052 -0.579304 0.393193 1
350 205 0.539896 -0.688812 0.353128 1
352 205 0.583942 -0.780801 0.302027 1
354 205 0.641751 -0.862433 0.245743 1
356 205 0.707860 -0.928763 0.188631 1
358 205 0.776064 -0.968283 0.139905 1
360 205 0.838900 -0.987750 0.094431 1
362 205 0.897153 -0.979884 0.058792 1
364 205 0.949181 -0.957582 0.021726 1
366 205 0.990363 -0.927763 -0.021070 1
368 205 1.014193 -0.885154 -0.082538 1
370 205 1.024728 -0.838581 -0.146024 1
372 205 1.014506 -0.787296 -0.200329 1
374 205 0.999425 -0.733978 -0.236571 1
376 205 0.988209 -0.678138 -0.259360 1
378 205 0.988430 -0.617486 -0.272275 1
380 205 0.999787 -0.552525 -0.279084 1
382 205 1.014359 -0.483769 -0.271807 1
384 205 1.030899 -0.412752 -0.249365 1
386 205 1.041557 -0.340401 -0.224193 1
388 205 1.052668 -0.264306 -0.207301 1
390 205 1.065362 -0.186420 -0.203617 1
392 205 1.074570 -0.110611 -0.205181 1
394 205 1.075784 -0.035769 -0.203202 1
396 205 1.072652 0.037849 -0.197533 1
398 205 1.068970 0.106853 -0.188641 1
400 205 1.067857 0.175699 -0.175614 1
402 205 1.066674 0.243610 -0.164680 1
404 205 1.059856 0.309248 -0.160364 1
406 205 1.045823 0.368789 -0.160209 1
408 205 1.037520 0.390659 -0.161664 1
410 205 0.000000 0.000000 0.000000 0
412 205 0.000000 0.000000 0.000000 0
414 205 0.000000 0.000000 0.000000 0
416 205 0.000000 0.000000 0.000000 0
418 205 0.000000 0.000000 0.000000 0
420 205 0.000000 0.000000 0.000000 0
422 205 0.000000 0.000000 0.000000 0
424 205 0.000000 0.000000 0.000000 0
426 205 0.000000 0.000000 0.000000 0
428 205 0.000000 0.000000 0.000000 0
430 205 0.000000 0.000000 0.000000 0
432 205 0.000000 0.000000 0.000000 0
434 205 0.000000 0.000000 0.000000 0
436 205 0.000000 0.000000 0.000000 0
438 205 0.000000 0.000000 0.000000 0
440 205 0.000000 0.000000 0.000000 0
442 205 0.000000 0.000000 0.000000 0
444 205 0.000000 0.000000 0.000000 0
446 205 0.000000 0.000000 0.000000 0
308 207 0.000000 0.000000 0.000000 0
310 207 0.000000 0.000000 0.000000 0
312 207 0.000000 0.000000 0.000000 0
314 207 0.000000 0.000000 0.000000 0
316 207 0.468734 0.606575 0.074151 1
318 207 0.422980 0.659954 0.074624 1
320 207 0.389375 0.700173 0.099439 1
322 207 0.385046 0.704447 0.141117 1
324 207 0.391026 0.682625 0.183356 1
326 207 0.393425 0.631541 0.227024 1
328 207 0.400154 0.551701 0.286404 1
330 207 0.423882 0.450158 0.360082 1
332 207 0.458095 0.335385 0.429321 1
334 207 0.484797 0.222630 0.481035 1
336 207 0.506571 0.112609 0.509134 1
338 207 0.534083 0.000308 0.515084 1
340 207 0.568259 -0.111514 0.511391 1
342 207 0.611192 -0.226658 0.497321 1
344 207 0.660878 -0.350379 0.472566 1
346 207 0.704615 -0.477829 0.446317 1
348 207 0.736349 -0.603826 0.415621 1
350 207 0.766599 -0.720840 0.376348 1
352 207 0.806937 -0.819752 0.328149 1
354 207 0.863682 -0.906801 0.274435 1
356 207 0.932584 -0.977280 0.223952 1
358 207 1.006183 -1.018504 0.189505 1
360 207 1.077424 -1.037262 0.169719 1
362 207 1.139939 -1.024476 0.155114 1
364 207 1.191880 -0.993817 0.128559 1
366 207 1.229243 -0.953658 0.080247 1
368 207 1.246823 -0.900605 0.005289 1
370 207 1.247381 -0.843999 -0.077830 1
372 207 1.226744 -0.787476 -0.144718 1
374 207 1.195084 -0.732326 -0.197260 1
376 207 1.165818 -0.678449 -0.233664 1
378 207 1.145964 -0.622295 -0.258107 1
380 207 1.137050 -0.562932 -0.275105 1
382 207 1.133380 -0.499395 -0.278511 1
384 207 1.130378 -0.432660 -0.265738 1
386 207 1.126339 -0.361899 -0.242882 1
388 207 1.126130 -0.284185 -0.222341 1
390 207 1.134781 -0.201044 -0.214181 1
392 207 1.143722 -0.118157 -0.213337 1
394 207 1.145654 -0.036158 -0.212059 1
396 207 1.142491 0.042079 -0.207829 1
398 207 1.138810 0.113978 -0.199571 1
400 207 1.138107 0.183051 -0.185696 1
402 207 1.138177 0.250567 -0.171968 1
404 207 1.133294 0.316897 -0.164668 1
406 207 1.120667 0.377813 -0.163254 1
408 207 1.112417 0.400348 -0.164367 1
410 207 0.000000 0.000000 0.000000 0
412 207 0.000000 0.000000 0.000000 0
414 207 0.000000 0.000000 0.000000 0
416 207 0.000000 0.000000 0.000000 0
418 207 0.000000 0.000000 0.000000 0
420 207 0.000000 0.000000 0.000000 0
422 207 0.000000 0.000000 0.000000 0
424 207 0.000000 0.000000 0.000000 0
426 207 0.000000 0.000000 0.000000 0
428 207 0.000000 0.000000 0.000000 0
430 207 0.000000 0.000000 0.000000 0
432 207 0.000000 0.000000 0.000000 0
434 207 0.000000 0.000000 0.000000 0
436 207 0.000000 0.000000 0.000000 0
438 207 0.000000 0.000000 0.000000 0
440 207 0.000000 0.000000 0.000000 0
442 207 0.000000 0.000000 0.000000 0
444 207 0.000000 0.000000 0.000000 0
446 207 0.000000 0.000000 0.000000 0
308 209 0.000000 0.000000 0.000000 0
310 209 0.000000 0.000000 0.000000 0
312 209 0.000000 0.000000 0.000000 0
314 209 0.000000 0.000000 0.000000 0
316 209 0.629304 0.629950 0.104184 1
318 209 0.601219 0.682345 0.113004 1
320 209 0.595711 0.713809 0.157532 1
322 209 0.614830 0.709046 0.213709 1
324 209 0.642695 0.679370 0.264969 1
326 209 0.659748 0.622620 0.310763 1
328 209 0.675765 0.538884 0.367900 1
330 209 0.704053 0.437475 0.435898 1
332 209 0.740184 0.325673 0.500207 1
334 209 0.767971 0.216896 0.546938 1
336 209 0.789188 0.108415 0.568461 1
338 209 0.812234 -0.003438 0.559569 1
340 209 0.838152 -0.114710 0.534634 1
342 209 0.872792 -0.229577 0.499619 1
344 209 0.918545 -0.355925 0.460057 1
346 209 0.961427 -0.488363 0.427972 1
348 209 0.993058 -0.622537 0.398817 1
350 209 1.022693 -0.747377 0.363718 1
352 209 1.060859 -0.854238 0.320615 1
354 209 1.114165 -0.948205 0.270431 1
356 209 1.179522 -1.023372 0.222555 1
358 209 1.248778 -1.065342 0.193433 1
360 209 1.317832 -1.080799 0.180609 1
362 209 1.377029 -1.058359 0.168636 1
364 209 1.424969 -1.016112 0.139221 1
366 209 1.456589 -0.963348 0.090078 1
368 209 1.467997 -0.898669 0.026385 1
370 209 1.465078 -0.832570 -0.038707 1
372 209 1.445561 -0.767113 -0.085009 1
374 209 1.414195 -0.706798 -0.130423 1
376 209 1.378345 -0.652049 -0.171674 1
378 209 1.343063 -0.600629 -0.208066 1
380 209 1.312039 -0.549147 -0.240979 1
382 209 1.282452 -0.494857 -0.264057 1
384 209 1.256115 -0.435802 -0.268415 1
386 209 1.229076 -0.371228 -0.257400 1
388 209 1.215695 -0.295106 -0.238140 1
390 209 1.216186 -0.209538 -0.225746 1
392 209 1.222207 -0.121992 -0.221206 1
394 209 1.222837 -0.035316 -0.219551 1
396 209 1.217811 0.046667 -0.218138 1
398 209 1.212282 0.121067 -0.212816 1
400 209 1.208583 0.192195 -0.201715 1
402 209 1.206253 0.260878 -0.187745 1
404 209 1.198829 0.327999 -0.176959 1
406 209 1.183758 0.388962 -0.170864 1
408 209 1.175130 0.411159 -0.170057 1
410 209 0.000000 0.000000 0.000000 0
412 209 0.000000 0.000000 0.000000 0
414 209 0.000000 0.000000 0.000000 0
416 209 0.000000 0.000000 0.000000 0
418 209 0.000000 0.000000 0.000000 0
420 209 0.000000 0.000000 0.000000 0
422 209 0.000000 0.000000 0.000000 0
424 209 0.000000 0.000000 0.000000 0
426 209 0.000000 0.000000 0.000000 0
428 209 0.000000 0.000000 0.000000 0
430 209 0.000000 0.000000 0.000000 0
432 209 0.000000 0.000000 0.000000 0
434 209 0.000000 0.000000 0.000000 0
436 209 0.000000 0.000000 0.000000 0
438 209 0.000000 0.000000 0.000000 0
440 209 0.000000 0.000000 0.000000 0
442 209 0.000000 0.000000 0.000000 0
444 209 0.000000 0.000000 0.000000 0
446 209 0.000000 0.000000 0.000000 0
308 211 0.000000 0.000000 0.000000 0
310 211 0.000000 0.000000 0.000000 0
312 211 0.000000 0.000000 0.000000 0
314 211 0.000000 0.000000 0.000000 0
316 211 0.818497 0.637734 0.136353 1
318 211 0.810219 0.689628 0.156040 1
320 211 0.825333 0.715797 0.214353 1
322 211 0.867170 0.703395 0.281707 1
324 211 0.912617 0.669073 0.336229 1
326 211 0.945939 0.609149 0.380577 1
328 211 0.972398 0.524431 0.431888 1
330 211 1.005287 0.425455 0.490344 1
332 211 1.042961 0.318403 0.543298 1
334 211 1.071596 0.213697 0.579222 1
336 211 1.092852 0.107539 0.586714 1
338 211 1.112966 -0.004233 0.561917 1
340 211 1.133026 -0.116579 0.519141 1
342 211 1.161430 -0.233219 0.469838 1
344 211 1.206033 -0.362686 0.424698 1
346 211 1.251784 -0.500129 0.391224 1
348 211 1.288080 -0.640506 0.365300 1
350 211 1.322518 -0.774199 0.337088 1
352 211 1.361534 -0.889225 0.301361 1
354 211 1.410975 -0.991372 0.259018 1
356 211 1.468531 -1.072064 0.216128 1
358 211 1.526511 -1.113725 0.188720 1
360 211 1.583385 -1.123707 0.175226 1
362 211 1.631632 -1.092120 0.158726 1
364 211 1.666970 -1.037186 0.124631 1
366 211 1.687668 -0.973313 0.078052 1
368 211 1.689465 -0.898741 0.032235 1
370 211 1.682094 -0.823260 -0.003856 1
372 211 1.665615 -0.748556 -0.025787 1
374 211 1.641439 -0.677851 -0.053443 1
376 211 1.607544 -0.617085 -0.092618 1
378 211 1.564110 -0.564704 -0.137843 1
380 211 1.515685 -0.517440 -0.185376 1
382 211 1.462811 -0.470471 -0.227207 1
384 211 1.409867 -0.420691 -0.252820 1
386 211 1.361021 -0.364249 -0.257085 1
388 211 1.327369 -0.295379 -0.245227 1
390 211 1.315408 -0.212671 -0.231266 1
392 211 1.311834 -0.125167 -0.223123 1
394 211 1.306733 -0.036572 -0.221438 1
396 211 1.296662 0.047865 -0.223610 1
398 211 1.286844 0.125323 -0.223287 1
400 211 1.278924 0.199372 -0.216180 1
402 211 1.271264 0.271125 -0.203944 1
404 211 1.259139 0.339636 -0.190119 1
406 211 1.239745 0.400549 -0.177248 1
408 211 1.231406 0.422511 -0.172258 1
410 211 0.000000 0.000000 0.000000 0
412 211 0.000000 0.000000 0.000000 0
414 211 0.000000 0.000000 0.000000 0
416 211 0.000000 0.000000 0.000000 0
418 211 0.000000 0.000000 0.000000 0
420 211 0.000000 0.000000 0.000000 0
422 211 0.000000 0.000000 0.000000 0
424 211 0.000000 0.000000 0.000000 0
426 211 0.000000 0.000000 0.000000 0
428 211 0.000000 0.000000 0.000000 0
430 211 0.000000 0.000000 0.000000 0
432 211 0.000000 0.000000 0.000000 0
434 211 0.000000 0.000000 0.000000 0
436 211 0.000000 0.000000 0.000000 0
438 211 0.000000 0.000000 0.000000 0
440 211 0.000000 0.000000 0.000000 0
442 211 0.000000 0.000000 0.000000 0
444 211 0.000000 0.000000 0.000000 0
446 211 0.000000 0.000000 0.000000 0
308 213 0.000000 0.000000 0.000000 0
310 213 0.000000 0.000000 0.000000 0
312 213 0.000000 0.000000 0.000000 0
314 213 0.000000 0.000000 0.000000 0
316 213 1.029966 0.624747 0.149124 1
318 213 1.034890 0.677113 0.178449 1
320 213 1.067164 0.699869 0.247474 1
322 213 1.121423 0.683875 0.319156 1
324 213 1.181800 0.647080 0.372733 1
326 213 1.227548 0.587034 0.413077 1
328 213 1.264518 0.504789 0.456777 1
330 213 1.302186 0.410543 0.505668 1
332 213 1.341625 0.308539 0.547797 1
334 213 1.371416 0.208410 0.569159 1
336 213 1.393519 0.104351 0.562828 1
338 213 1.414329 -0.008072 0.525142 1
340 213 1.434745 -0.122962 0.474259 1
342 213 1.462276 -0.243137 0.418993 1
344 213 1.505665 -0.375069 0.369558 1
346 213 1.552079 -0.514432 0.333312 1
348 213 1.592023 -0.658661 0.309609 1
350 213 1.630547 -0.798253 0.287277 1
352 213 1.670132 -0.921576 0.259959 1
354 213 1.714088 -1.029883 0.225021 1
356 213 1.760368 -1.113367 0.188530 1