TITLE = "B00014"
VARIABLES = "X", "Y", "Vx", "Vy", "Vz", "flag"
ZONE T="B00014", I=70, J=78
308 191 0.000000 0.000000 0.000000 0
310 191 0.000000 0.000000 0.000000 0
312 191 0.000000 0.000000 0.000000 0
314 191 0.000000 0.000000 0.000000 0
316 191 0.000000 0.000000 0.000000 0
318 191 0.000000 0.000000 0.000000 0
320 191 0.000000 0.000000 0.000000 0
322 191 0.000000 0.000000 0.000000 0
324 191 0.000000 0.000000 0.000000 0
326 191 0.000000 0.000000 0.000000 0
328 191 0.000000 0.000000 0.000000 0
330 191 0.000000 0.000000 0.000000 0
332 191 0.000000 0.000000 0.000000 0
334 191 0.000000 0.000000 0.000000 0
336 191 0.000000 0.000000 0.000000 0
338 191 0.000000 0.000000 0.000000 0
340 191 0.000000 0.000000 0.000000 0
342 191 0.000000 0.000000 0.000000 0
344 191 0.000000 0.000000 0.000000 0
346 191 0.000000 0.000000 0.000000 0
348 191 0.000000 0.000000 0.000000 0
350 191 0.000000 0.000000 0.000000 0
352 191 0.000000 0.000000 0.000000 0
354 191 0.000000 0.000000 0.000000 0
356 191 0.000000 0.000000 0.000000 0
358 191 0.000000 0.000000 0.000000 0
360 191 0.000000 0.000000 0.000000 0
362 191 0.000000 0.000000 0.000000 0
364 191 0.000000 0.000000 0.000000 0
366 191 0.000000 0.000000 0.000000 0
368 191 0.000000 0.000000 0.000000 0
370 191 0.000000 0.000000 0.000000 0
372 191 0.000000 0.000000 0.000000 0
374 191 0.000000 0.000000 0.000000 0
376 191 0.000000 0.000000 0.000000 0
378 191 0.000000 0.000000 0.000000 0
380 191 0.000000 0.000000 0.000000 0
382 191 0.000000 0.000000 0.000000 0
384 191 0.000000 0.000000 0.000000 0
386 191 0.000000 0.000000 0.000000 0
388 191 0.000000 0.000000 0.000000 0
390 191 0.000000 0.000000 0.000000 0
392 191 0.000000 0.000000 0.000000 0
394 191 0.000000 0.000000 0.000000 0
396 191 0.000000 0.000000 0.000000 0
398 191 0.000000 0.000000 0.000000 0
400 191 0.000000 0.000000 0.000000 0
402 191 0.000000 0.000000 0.000000 0
404 191 0.000000 0.000000 0.000000 0
406 191 0.000000 0.000000 0.000000 0
408 191 0.000000 0.000000 0.000000 0
410 191 0.000000 0.000000 0.000000 0
412 191 0.000000 0.000000 0.000000 0
414 191 0.000000 0.000000 0.000000 0
416 191 0.000000 0.000000 0.000000 0
418 191 0.000000 0.000000 0.000000 0
420 191 0.000000 0.000000 0.000000 0
422 191 0.000000 0.000000 0.000000 0
424 191 0.000000 0.000000 0.000000 0
426 191 0.000000 0.000000 0.000000 0
428 191 0.000000 0.000000 0.000000 0
430 191 0.000000 0.000000 0.000000 0
432 191 0.000000 0.000000 0.000000 0
434 191 0.000000 0.000000 0.000000 0
436 191 0.000000 0.000000 0.000000 0
438 191 0.000000 0.000000 0.000000 0
440 191 0.000000 0.000000 0.000000 0
442 191 0.000000 0.000000 0.000000 0
444 191 0.000000 0.000000 0.000000 0
446 191 0.000000 0.000000 0.000000 0
308 193 0.000000 0.000000 0.000000 0
310 193 0.000000 0.000000 0.000000 0
312 193 0.000000 0.000000 0.000000 0
314 193 0.000000 0.000000 0.000000 0
316 193 0.000000 0.000000 0.000000 0
318 193 0.000000 0.000000 0.000000 0
320 193 0.000000 0.000000 0.000000 0
322 193 0.000000 0.000000 0.000000 0
324 193 0.000000 0.000000 0.000000 0
326 193 0.000000 0.000000 0.000000 0
328 193 0.000000 0.000000 0.000000 0
330 193 0.000000 0.000000 0.000000 0
332 193 0.000000 0.000000 0.000000 0
334 193 0.000000 0.000000 0.000000 0
336 193 0.000000 0.000000 0.000000 0
338 193 0.000000 0.000000 0.000000 0
340 193 0.000000 0.000000 0.000000 0
342 193 0.000000 0.000000 0.000000 0
344 193 0.000000 0.000000 0.000000 0
346 193 0.000000 0.000000 0.000000 0
348 193 0.000000 0.000000 0.000000 0
350 193 0.000000 0.000000 0.000000 0
352 193 0.000000 0.000000 0.000000 0
354 193 0.000000 0.000000 0.000000 0
356 193 0.000000 0.000000 0.000000 0
358 193 0.000000 0.000000 0.000000 0
360 193 0.000000 0.000000 0.000000 0
362 193 0.000000 0.000000 0.000000 0
364 193 0.000000 0.000000 0.000000 0
366 193 0.000000 0.000000 0.000000 0
368 193 0.000000 0.000000 0.000000 0
370 193 0.000000 0.000000 0.000000 0
372 193 0.000000 0.000000 0.000000 0
374 193 0.000000 0.000000 0.000000 0
376 193 0.000000 0.000000 0.000000 0
378 193 0.000000 0.000000 0.000000 0
380 193 0.000000 0.000000 0.000000 0
382 193 0.000000 0.000000 0.000000 0
384 193 0.000000 0.000000 0.000000 0
386 193 0.000000 0.000000 0.000000 0
388 193 0.000000 0.000000 0.000000 0
390 193 0.000000 0.000000 0.000000 0
392 193 0.000000 0.000000 0.000000 0
394 193 0.000000 0.000000 0.000000 0
396 193 0.000000 0.000000 0.000000 0
398 193 0.000000 0.000000 0.000000 0
400 193 0.000000 0.000000 0.000000 0
402 193 0.000000 0.000000 0.000000 0
404 193 0.000000 0.000000 0.000000 0
406 193 0.000000 0.000000 0.000000 0
408 193 0.000000 0.000000 0.000000 0
410 193 0.000000 0.000000 0.000000 0
412 193 0.000000 0.000000 0.000000 0
414 193 0.000000 0.000000 0.000000 0
416 193 0.000000 0.000000 0.000000 0
418 193 0.000000 0.000000 0.000000 0
420 193 0.000000 0.000000 0.000000 0
422 193 0.000000 0.000000 0.000000 0
424 193 0.000000 0.000000 0.000000 0
426 193 0.000000 0.000000 0.000000 0
428 193 0.000000 0.000000 0.000000 0
430 193 0.000000 0.000000 0.000000 0
432 193 0.000000 0.000000 0.000000 0
434 193 0.000000 0.000000 0.000000 0
436 193 0.000000 0.000000 0.000000 0
438 193 0.000000 0.000000 0.000000 0
440 193 0.000000 0.000000 0.000000 0
442 193 0.000000 0.000000 0.000000 0
444 193 0.000000 0.000000 0.000000 0
446 193 0.000000 0.000000 0.000000 0
308 195 0.000000 0.000000 0.000000 0
310 195 0.000000 0.000000 0.000000 0
312 195 0.000000 0.000000 0.000000 0
314 195 0.000000 0.000000 0.000000 0
316 195 0.000000 0.000000 0.000000 0
318 195 0.000000 0.000000 0.000000 0
320 195 0.000000 0.000000 0.000000 0
322 195 0.000000 0.000000 0.000000 0
324 195 0.000000 0.000000 0.000000 0
326 195 0.000000 0.000000 0.000000 0
328 195 0.000000 0.000000 0.000000 0
330 195 0.000000 0.000000 0.000000 0
332 195 0.000000 0.000000 0.000000 0
334 195 0.000000 0.000000 0.000000 0
336 195 0.000000 0.000000 0.000000 0
338 195 0.000000 0.000000 0.000000 0
340 195 0.000000 0.000000 0.000000 0
342 195 0.000000 0.000000 0.000000 0
344 195 0.000000 0.000000 0.000000 0
346 195 0.000000 0.000000 0.000000 0
348 195 0.000000 0.000000 0.000000 0
350 195 0.000000 0.000000 0.000000 0
352 195 0.000000 0.000000 0.000000 0
354 195 0.000000 0.000000 0.000000 0
356 195 0.000000 0.000000 0.000000 0
358 195 0.000000 0.000000 0.000000 0
360 195 0.000000 0.000000 0.000000 0
362 195 0.000000 0.000000 0.000000 0
364 195 0.000000 0.000000 0.000000 0
366 195 0.000000 0.000000 0.000000 0
368 195 0.000000 0.000000 0.000000 0
370 195 0.000000 0.000000 0.000000 0
372 195 0.000000 0.000000 0.000000 0
374 195 0.000000 0.000000 0.000000 0
376 195 0.000000 0.000000 0.000000 0
378 195 0.000000 0.000000 0.000000 0
380 195 0.000000 0.000000 0.000000 0
382 195 0.000000 0.000000 0.000000 0
384 195 0.000000 0.000000 0.000000 0
386 195 0.000000 0.000000 0.000000 0
388 195 0.000000 0.000000 0.000000 0
390 195 0.000000 0.000000 0.000000 0
392 195 0.000000 0.000000 0.000000 0
394 195 0.000000 0.000000 0.000000 0
396 195 0.000000 0.000000 0.000000 0
398 195 0.000000 0.000000 0.000000 0
400 195 0.000000 0.000000 0.000000 0
402 195 0.000000 0.000000 0.000000 0
404 195 0.000000 0.000000 0.000000 0
406 195 0.000000 0.000000 0.000000 0
408 195 0.000000 0.000000 0.000000 0
410 195 0.000000 0.000000 0.000000 0
412 195 0.000000 0.000000 0.000000 0
414 195 0.000000 0.000000 0.000000 0
416 195 0.000000 0.000000 0.000000 0
418 195 0.000000 0.000000 0.000000 0
420 195 0.000000 0.000000 0.000000 0
422 195 0.000000 0.000000 0.000000 0
424 195 0.000000 0.000000 0.000000 0
426 195 0.000000 0.000000 0.000000 0
428 195 0.000000 0.000000 0.000000 0
430 195 0.000000 0.000000 0.000000 0
432 195 0.000000 0.000000 0.000000 0
434 195 0.000000 0.000000 0.000000 0
436 195 0.000000 0.000000 0.000000 0
438 195 0.000000 0.000000 0.000000 0
440 195 0.000000 0.000000 0.000000 0
442 195 0.000000 0.000000 0.000000 0
444 195 0.000000 0.000000 0.000000 0
446 195 0.000000 0.000000 0.000000 0
308 197 0.000000 0.000000 0.000000 0
310 197 0.000000 0.000000 0.000000 0
312 197 0.000000 0.000000 0.000000 0
314 197 0.000000 0.000000 0.000000 0
316 197 0.000000 0.000000 0.000000 0
318 197 -0.216641 0.133485 -0.056354 1
320 197 -0.212219 0.083677 -0.058709 1
322 197 -0.233584 0.023413 -0.060517 1
324 197 -0.257904 -0.033868 -0.070485 1
326 197 -0.267935 -0.093329 -0.077856 1
328 197 -0.261618 -0.157957 -0.078603 1
330 197 -0.238951 -0.217905 -0.080052 1
332 197 -0.193414 -0.268677 -0.086900 1
334 197 -0.134765 -0.313115 -0.105987 1
336 197 -0.085288 -0.349322 -0.129985 1
338 197 -0.049480 -0.380180 -0.145863 1
340 197 -0.014171 -0.410049 -0.154972 1
342 197 0.028223 -0.428268 -0.169022 1
344 197 0.085744 -0.437184 -0.186446 1
346 197 0.152822 -0.439871 -0.188384 1
348 197 0.222271 -0.435143 -0.171698 1
350 197 0.286461 -0.426091 -0.155268 1
352 197 0.340765 -0.407341 -0.146129 1
354 197 0.389870 -0.379635 -0.135597 1
356 197 0.436275 -0.349767 -0.121462 1
358 197 0.478460 -0.315840 -0.113876 1
360 197 0.515771 -0.280448 -0.118748 1
362 197 0.545072 -0.242590 -0.136883 1
364 197 0.567591 -0.200377 -0.160512 1
366 197 0.585691 -0.155318 -0.182809 1
368 197 0.601292 -0.109316 -0.193227 1
370 197 0.615106 -0.066622 -0.188662 1
372 197 0.623234 -0.026541 -0.165457 1
374 197 0.628841 0.012116 -0.138369 1
376 197 0.636089 0.052608 -0.126592 1
378 197 0.642154 0.097919 -0.132156 1
380 197 0.645578 0.145321 -0.143191 1
382 197 0.640562 0.190462 -0.140019 1
384 197 0.629333 0.231612 -0.120850 1
386 197 0.614970 0.268074 -0.099435 1
388 197 0.597717 0.299384 -0.086486 1
390 197 0.577676 0.327422 -0.081594 1
392 197 0.556363 0.355387 -0.083754 1
394 197 0.534021 0.386537 -0.097414 1
396 197 0.511030 0.422243 -0.114862 1
398 197 0.487035 0.457783 -0.127642 1
400 197 0.461051 0.492330 -0.125386 1
402 197 0.438161 0.523423 -0.107443 1
404 197 0.464826 0.553367 -0.077884 1
406 197 0.000000 0.000000 0.000000 0
408 197 0.000000 0.000000 0.000000 0
410 197 0.000000 0.000000 0.000000 0
412 197 0.000000 0.000000 0.000000 0
414 197 0.000000 0.000000 0.000000 0
416 197 0.000000 0.000000 0.000000 0
418 197 0.000000 0.000000 0.000000 0
420 197 0.000000 0.000000 0.000000 0
422 197 0.000000 0.000000 0.000000 0
424 197 0.000000 0.000000 0.000000 0
426 197 0.000000 0.000000 0.000000 0
428 197 0.000000 0.000000 0.000000 0
430 197 0.000000 0.000000 0.000000 0
432 197 0.000000 0.000000 0.000000 0
434 197 0.000000 0.000000 0.000000 0
436 197 0.000000 0.000000 0.000000 0
438 197 0.000000 0.000000 0.000000 0
440 197 0.000000 0.000000 0.000000 0
442 197 0.000000 0.000000 0.000000 0
444 197 0.000000 0.000000 0.000000 0
446 197 0.000000 0.000000 0.000000 0
308 199 0.000000 0.000000 0.000000 0
310 199 0.000000 0.000000 0.000000 0
312 199 0.000000 0.000000 0.000000 0
314 199 0.000000 0.000000 0.000000 0
316 199 -0.211179 0.227538 -0.056961 1
318 199 -0.233956 0.178371 -0.048713 1
320 199 -0.262964 0.110618 -0.029322 1
322 199 -0.282557 0.039039 -0.035516 1
324 199 -0.295934 -0.032609 -0.050769 1
326 199 -0.294319 -0.104181 -0.065660 1
328 199 -0.278953 -0.181644 -0.076718 1
330 199 -0.251538 -0.254756 -0.085808 1
332 199 -0.201346 -0.320633 -0.096549 1
334 199 -0.134974 -0.383490 -0.113119 1
336 199 -0.076897 -0.434152 -0.135403 1
338 199 -0.030466 -0.476228 -0.156487 1
340 199 0.012367 -0.511057 -0.178592 1
342 199 0.060963 -0.531962 -0.211039 1
344 199 0.121885 -0.541717 -0.245453 1
346 199 0.191143 -0.543854 -0.259439 1
348 199 0.262083 -0.536486 -0.247688 1
350 199 0.328327 -0.523626 -0.230360 1
352 199 0.385397 -0.498764 -0.216929 1
354 199 0.438556 -0.463933 -0.203452 1
356 199 0.490811 -0.424647 -0.188408 1
358 199 0.538960 -0.380227 -0.181226 1
360 199 0.581143 -0.335482 -0.183009 1
362 199 0.613989 -0.288860 -0.189353 1
364 199 0.637986 -0.240210 -0.198124 1
366 199 0.656593 -0.188088 -0.204889 1
368 199 0.672546 -0.135164 -0.209426 1
370 199 0.687436 -0.084563 -0.207988 1
372 199 0.697340 -0.036738 -0.194354 1
374 199 0.703283 0.007852 -0.172755 1
376 199 0.707345 0.053324 -0.156881 1
378 199 0.708730 0.102226 -0.153479 1
380 199 0.707261 0.153766 -0.154207 1
382 199 0.699697 0.202988 -0.145926 1
384 199 0.687064 0.248792 -0.126132 1
386 199 0.670342 0.290016 -0.108085 1
388 199 0.650668 0.325613 -0.096091 1
390 199 0.628509 0.358249 -0.086316 1
392 199 0.606281 0.389400 -0.080600 1
394 199 0.583545 0.422621 -0.083784 1
396 199 0.561529 0.458310 -0.091605 1
398 199 0.540466 0.493001 -0.096544 1
400 199 0.518859 0.526467 -0.091103 1
402 199 0.499149 0.556044 -0.074914 1
404 199 0.480848 0.578550 -0.055432 1
406 199 0.496008 0.599529 -0.042213 1
408 199 0.000000 0.000000 0.000000 0
410 199 0.000000 0.000000 0.000000 0
412 199 0.000000 0.000000 0.000000 0
414 199 0.000000 0.000000 0.000000 0
416 199 0.000000 0.000000 0.000000 0
418 199 0.000000 0.000000 0.000000 0
420 199 0.000000 0.000000 0.000000 0
422 199 0.000000 0.000000 0.000000 0
424 199 0.000000 0.000000 0.000000 0
426 199 0.000000 0.000000 0.000000 0
428 199 0.000000 0.000000 0.000000 0
430 199 0.000000 0.000000 0.000000 0
432 199 0.000000 0.000000 0.000000 0
434 199 0.000000 0.000000 0.000000 0
436 199 0.000000 0.000000 0.000000 0
438 199 0.000000 0.000000 0.000000 0
440 199 0.000000 0.000000 0.000000 0
442 199 0.000000 0.000000 0.000000 0
444 199 0.000000 0.000000 0.000000 0
446 199 0.000000 0.000000 0.000000 0
308 201 0.000000 0.000000 0.000000 0
310 201 0.000000 0.000000 0.000000 0
312 201 0.000000 0.000000 0.000000 0
314 201 0.000000 0.000000 0.000000 0
316 201 -0.202437 0.263471 0.003724 1
318 201 -0.240341 0.211469 -0.006509 1
320 201 -0.266045 0.132655 -0.001818 1
322 201 -0.283904 0.049878 -0.018452 1
324 201 -0.288845 -0.032937 -0.037174 1
326 201 -0.272886 -0.117755 -0.055030 1
328 201 -0.247202 -0.205641 -0.069789 1
330 201 -0.210562 -0.290861 -0.076546 1
332 201 -0.151936 -0.370481 -0.078710 1
334 201 -0.077262 -0.447270 -0.081738 1
336 201 -0.012393 -0.509986 -0.098256 1
338 201 0.036862 -0.557731 -0.128309 1
340 201 0.077899 -0.595396 -0.174477 1
342 201 0.122570 -0.617475 -0.230422 1
344 201 0.176361 -0.627712 -0.284978 1
346 201 0.239033 -0.629534 -0.312194 1
348 201 0.303574 -0.621106 -0.306102 1
350 201 0.366257 -0.606520 -0.287512 1
352 201 0.422629 -0.579492 -0.267654 1
354 201 0.477929 -0.539940 -0.245494 1
356 201 0.534607 -0.493159 -0.226948 1
358 201 0.587644 -0.438608 -0.220801 1
360 201 0.634609 -0.384274 -0.221978 1
362 201 0.670528 -0.330687 -0.221743 1
364 201 0.696598 -0.275988 -0.217012 1
366 201 0.716446 -0.218868 -0.211879 1
368 201 0.734024 -0.158794 -0.209627 1
370 201 0.751099 -0.100360 -0.210250 1
372 201 0.763638 -0.043584 -0.205826 1
374 201 0.770868 0.009038 -0.192387 1
376 201 0.773580 0.059919 -0.176099 1
378 201 0.771668 0.112565 -0.163604 1
380 201 0.767463 0.166272 -0.155374 1
382 201 0.757446 0.217681 -0.141952 1
384 201 0.742421 0.266198 -0.122959 1
386 201 0.721821 0.310637 -0.110371 1
388 201 0.698938 0.350229 -0.101904 1
390 201 0.675350 0.386777 -0.091909 1
392 201 0.652224 0.421777 -0.082616 1
394 201 0.628736 0.456757 -0.080423 1
396 201 0.606531 0.492236 -0.080371 1
398 201 0.586760 0.525743 -0.078290 1
400 201 0.566064 0.557541 -0.070026 1
402 201 0.545535 0.583922 -0.055824 1
404 201 0.524486 0.601781 -0.042217 1
406 201 0.500149 0.616246 -0.038546 1
408 201 0.507651 0.629223 -0.041283 1
410 201 0.000000 0.000000 0.000000 0
412 201 0.000000 0.000000 0.000000 0
414 201 0.000000 0.000000 0.000000 0
416 201 0.000000 0.000000 0.000000 0
418 201 0.000000 0.000000 0.000000 0
420 201 0.000000 0.000000 0.000000 0
422 201 0.000000 0.000000 0.000000 0
424 201 0.000000 0.000000 0.000000 0
426 201 0.000000 0.000000 0.000000 0
428 201 0.000000 0.000000 0.000000 0
430 201 0.000000 0.000000 0.000000 0
432 201 0.000000 0.000000 0.000000 0
434 201 0.000000 0.000000 0.000000 0
436 201 0.000000 0.000000 0.000000 0
438 201 0.000000 0.000000 0.000000 0
440 201 0.000000 0.000000 0.000000 0
442 201 0.000000 0.000000 0.000000 0
444 201 0.000000 0.000000 0.000000 0
446 201 0.000000 0.000000 0.000000 0
308 203 0.000000 0.000000 0.000000 0
310 203 0.000000 0.000000 0.000000 0
312 203 0.000000 0.000000 0.000000 0
314 203 0.000000 0.000000 0.000000 0
316 203 -0.145979 0.295492 0.151054 1
318 203 -0.164087 0.228188 0.085162 1
320 203 -0.166355 0.138205 0.067409 1
322 203 -0.172363 0.047287 0.030864 1
324 203 -0.170881 -0.044909 0.003873 1
326 203 -0.147118 -0.139528 -0.012973 1
328 203 -0.109110 -0.239006 -0.024609 1
330 203 -0.061630 -0.334070 -0.023658 1
332 203 0.006656 -0.424302 -0.010915 1
334 203 0.085160 -0.508501 -0.000957 1
336 203 0.149974 -0.574778 -0.015393 1
338 203 0.195184 -0.622241 -0.061651 1
340 203 0.227976 -0.658702 -0.131368 1
342 203 0.258622 -0.679872 -0.214134 1
344 203 0.298422 -0.689650 -0.284145 1
346 203 0.346263 -0.690947 -0.323341 1
348 203 0.397077 -0.682137 -0.325673 1
350 203 0.448384 -0.667954 -0.311280 1
352 203 0.494681 -0.642210 -0.288767 1
354 203 0.543320 -0.602923 -0.259783 1
356 203 0.595818 -0.552659 -0.234978 1
358 203 0.646943 -0.491485 -0.228682 1
360 203 0.693537 -0.429173 -0.230897 1
362 203 0.729300 -0.368986 -0.228460 1
364 203 0.755225 -0.309328 -0.217702 1
366 203 0.775111 -0.246782 -0.204499 1
368 203 0.793005 -0.180813 -0.199079 1
370 203 0.810997 -0.114074 -0.202080 1
372 203 0.824332 -0.048963 -0.204645 1
374 203 0.831677 0.012258 -0.199529 1
376 203 0.832614 0.069893 -0.186328 1
378 203 0.828636 0.126159 -0.169173 1
380 203 0.822580 0.181410 -0.151367 1
382 203 0.810827 0.233382 -0.133135 1
384 203 0.792547 0.283279 -0.115102 1
386 203 0.767804 0.330137 -0.107559 1
388 203 0.741705 0.373102 -0.103345 1
390 203 0.716790 0.414068 -0.095713 1
392 203 0.692787 0.452806 -0.087173 1
394 203 0.667757 0.490333 -0.082679 1
396 203 0.644296 0.525797 -0.078199 1
398 203 0.623810 0.557841 -0.071331 1
400 203 0.601926 0.587340 -0.062296 1
402 203 0.579044 0.610027 -0.050607 1
404 203 0.555816 0.622547 -0.041578 1
406 203 0.531865 0.632389 -0.040457 1
408 203 0.523124 0.636980 -0.043111 1
410 203 0.000000 0.000000 0.000000 0
412 203 0.000000 0.000000 0.000000 0
414 203 0.000000 0.000000 0.000000 0
416 203 0.000000 0.000000 0.000000 0
418 203 0.000000 0.000000 0.000000 0
420 203 0.000000 0.000000 0.000000 0
422 203 0.000000 0.000000 0.000000 0
424 203 0.000000 0.000000 0.000000 0
426 203 0.000000 0.000000 0.000000 0
428 203 0.000000 0.000000 0.000000 0
430 203 0.000000 0.000000 0.000000 0
432 203 0.000000 0.000000 0.000000 0
434 203 0.000000 0.000000 0.000000 0
436 203 0.000000 0.000000 0.000000 0
438 203 0.000000 0.000000 0.000000 0
440 203 0.000000 0.000000 0.000000 0
442 203 0.000000 0.000000 0.000000 0
444 203 0.000000 0.000000 0.000000 0
446 203 0.000000 0.000000 0.000000 0
308 205 0.000000 0.000000 0.000000 0
310 205 0.000000 0.000000 0.000000 0
312 205 0.000000 0.000000 0.000000 0
314 205 0.000000 0.000000 0.000000 0
316 205 -0.036922 0.295943 0.231403 1
318 205 -0.003772 0.223544 0.228267 1
320 205 0.038563 0.118348 0.199971 1
322 205 0.059961 0.020841 0.149821 1
324 205 0.070027 -0.075924 0.117413 1
326 205 0.097632 -0.178369 0.102506 1
328 205 0.143333 -0.286608 0.093256 1
330 205 0.199882 -0.390991 0.094416 1
332 205 0.269646 -0.486547 0.108826 1
334 205 0.341347 -0.571200 0.114114 1
336 205 0.399819 -0.634859 0.090898 1
338 205 0.440666 -0.678335 0.029814 1
340 205 0.466896 -0.711256 -0.058001 1
342 205 0.486971 -0.729995 -0.153316 1
344 205 0.510483 -0.736992 -0.230836 1
346 205 0.542866 -0.735790 -0.276586 1
348 205 0.576886 -0.724084 -0.289451 1
350 205 0.610573 -0.708609 -0.287486 1
352 205 0.638140 -0.683722 -0.276060 1
354 205 0.665248 -0.647451 -0.255728 1
356 205 0.701107 -0.599083 -0.234541 1
358 205 0.737010 -0.537113 -0.229665 1
360 205 0.775088 -0.470970 -0.231541 1
362 205 0.804530 -0.405725 -0.226744 1
364 205 0.826195 -0.340556 -0.211676 1
366 205 0.842933 -0.272386 -0.194683 1
368 205 0.858229 -0.199399 -0.188213 1
370 205 0.874385 -0.126262 -0.193002 1
372 205 0.885997 -0.053719 -0.199658 1
374 205 0.891748 0.014695 -0.200834 1
376 205 0.890216 0.079046 -0.193458 1
378 205 0.883715 0.139876 -0.175799 1
380 205 0.875674 0.197099 -0.152515 1
382 205 0.861475 0.250215 -0.128562 1
384 205 0.840271 0.301438 -0.109846 1
386 205 0.812114 0.351013 -0.103795 1
388 205 0.783300 0.397359 -0.101926 1
390 205 0.756465 0.443028 -0.097529 1
392 205 0.730586 0.486393 -0.091518 1
394 205 0.703469 0.526318 -0.086435 1
396 205 0.677208 0.561322 -0.078378 1
398 205 0.654620 0.591065 -0.069366 1
400 205 0.630860 0.616738 -0.062176 1
402 205 0.607494 0.635450 -0.053953 1
404 205 0.585872 0.643824 -0.046111 1
406 205 0.565231 0.649686 -0.043297 1
408 205 0.558372 0.652527 -0.043006 1
410 205 0.000000 0.000000 0.000000 0
412 205 0.000000 0.000000 0.000000 0
414 205 0.000000 0.000000 0.000000 0
416 205 0.000000 0.000000 0.000000 0
418 205 0.000000 0.000000 0.000000 0
420 205 0.000000 0.000000 0.000000 0
422 205 0.000000 0.000000 0.000000 0
424 205 0.000000 0.000000 0.000000 0
426 205 0.000000 0.000000 0.000000 0
428 205 0.000000 0.000000 0.000000 0
430 205 0.000000 0.000000 0.000000 0
432 205 0.000000 0.000000 0.000000 0
434 205 0.000000 0.000000 0.000000 0
436 205 0.000000 0.000000 0.000000 0
438 205 0.000000 0.000000 0.000000 0
440 205 0.000000 0.000000 0.000000 0
442 205 0.000000 0.000000 0.000000 0
444 205 0.000000 0.000000 0.000000 0
446 205 0.000000 0.000000 0.000000 0
308 207 0.000000 0.000000 0.000000 0
310 207 0.000000 0.000000 0.000000 0
312 207 0.000000 0.000000 0.000000 0
314 207 0.000000 0.000000 0.000000 0
316 207 0.160384 0.297985 0.337760 1
318 207 0.199592 0.208715 0.359997 1
320 207 0.272098 0.089405 0.333523 1
322 207 0.322147 -0.016236 0.292935 1
324 207 0.340359 -0.114728 0.267883 1
326 207 0.368284 -0.220321 0.258546 1
328 207 0.418580 -0.335323 0.246720 1
330 207 0.480158 -0.445777 0.235809 1
332 207 0.547503 -0.545236 0.232216 1
334 207 0.611597 -0.629254 0.220628 1
336 207 0.664708 -0.690271 0.183594 1
338 207 0.706969 -0.730626 0.113491 1
340 207 0.736400 -0.760748 0.020232 1
342 207 0.754399 -0.775985 -0.076570 1
344 207 0.770036 -0.778600 -0.151519 1
346 207 0.788884 -0.771087 -0.197199 1
348 207 0.809544 -0.752988 -0.216746 1
350 207 0.826308 -0.731740 -0.229476 1
352 207 0.832781 -0.704361 -0.239863 1
354 207 0.835699 -0.669541 -0.244442 1
356 207 0.843551 -0.626016 -0.244764 1
358 207 0.857905 -0.568443 -0.247224 1
360 207 0.877439 -0.504115 -0.248159 1
362 207 0.895611 -0.437329 -0.238500 1
364 207 0.908516 -0.368400 -0.217555 1
366 207 0.918958 -0.294990 -0.196105 1
368 207 0.929882 -0.216999 -0.187368 1
370 207 0.942274 -0.138347 -0.190759 1
372 207 0.951734 -0.060997 -0.196591 1
374 207 0.955739 0.013967 -0.200403 1
376 207 0.952121 0.084715 -0.198442 1
378 207 0.942792 0.151263 -0.184552 1
380 207 0.931206 0.212187 -0.159810 1
382 207 0.913899 0.267541 -0.132076 1
384 207 0.889754 0.321181 -0.110170 1
386 207 0.859763 0.373345 -0.102055 1
388 207 0.828239 0.423108 -0.100026 1
390 207 0.798449 0.473160 -0.098252 1
392 207 0.769516 0.520852 -0.094853 1
394 207 0.739404 0.563003 -0.088788 1
396 207 0.710451 0.597071 -0.077449 1
398 207 0.684947 0.622917 -0.065818 1
400 207 0.660121 0.644109 -0.059396 1
402 207 0.638276 0.658517 -0.052633 1
404 207 0.620711 0.663825 -0.042351 1
406 207 0.604230 0.666945 -0.034743 1
408 207 0.599436 0.668258 -0.029567 1
410 207 0.000000 0.000000 0.000000 0
412 207 0.000000 0.000000 0.000000 0
414 207 0.000000 0.000000 0.000000 0
416 207 0.000000 0.000000 0.000000 0
418 207 0.000000 0.000000 0.000000 0
420 207 0.000000 0.000000 0.000000 0
422 207 0.000000 0.000000 0.000000 0
424 207 0.000000 0.000000 0.000000 0
426 207 0.000000 0.000000 0.000000 0
428 207 0.000000 0.000000 0.000000 0
430 207 0.000000 0.000000 0.000000 0
432 207 0.000000 0.000000 0.000000 0
434 207 0.000000 0.000000 0.000000 0
436 207 0.000000 0.000000 0.000000 0
438 207 0.000000 0.000000 0.000000 0
440 207 0.000000 0.000000 0.000000 0
442 207 0.000000 0.000000 0.000000 0
444 207 0.000000 0.000000 0.000000 0
446 207 0.000000 0.000000 0.000000 0
308 209 0.000000 0.000000 0.000000 0
310 209 0.000000 0.000000 0.000000 0
312 209 0.000000 0.000000 0.000000 0
314 209 0.000000 0.000000 0.000000 0
316 209 0.475296 0.282794 0.402957 1
318 209 0.516491 0.181379 0.420624 1
320 209 0.587021 0.049433 0.401937 1
322 209 0.637432 -0.059795 0.379020 1
324 209 0.653694 -0.156818 0.376598 1
326 209 0.677050 -0.262045 0.379685 1
328 209 0.727989 -0.379555 0.365097 1
330 209 0.793519 -0.493515 0.334218 1
332 209 0.859676 -0.594595 0.309363 1
334 209 0.919522 -0.678711 0.278866 1
336 209 0.972328 -0.739542 0.237230 1
338 209 1.019872 -0.779733 0.173363 1
340 209 1.056554 -0.808204 0.091068 1
342 209 1.078024 -0.819111 0.006678 1
344 209 1.089467 -0.812514 -0.058617 1
346 209 1.099982 -0.794581 -0.100675 1
348 209 1.108049 -0.763036 -0.123697 1
350 209 1.111432 -0.731862 -0.147684 1
352 209 1.099657 -0.697340 -0.181010 1
354 209 1.078175 -0.660717 -0.218439 1
356 209 1.058293 -0.620087 -0.248203 1
358 209 1.040724 -0.569507 -0.267183 1
360 209 1.035211 -0.511302 -0.270467 1
362 209 1.028781 -0.449768 -0.256096 1
364 209 1.023963 -0.383000 -0.230139 1
366 209 1.019584 -0.310026 -0.205220 1
368 209 1.019463 -0.231425 -0.193610 1
370 209 1.023942 -0.151217 -0.193417 1
372 209 1.027660 -0.070050 -0.194900 1
374 209 1.028846 0.010106 -0.197912 1
376 209 1.022166 0.088421 -0.199996 1
378 209 1.009151 0.161745 -0.191471 1
380 209 0.992282 0.228063 -0.170111 1
382 209 0.970366 0.287340 -0.141401 1
384 209 0.944001 0.343952 -0.116191 1
386 209 0.912741 0.399409 -0.103031 1
388 209 0.878679 0.451951 -0.099134 1
390 209 0.844117 0.505524 -0.098638 1
392 209 0.810902 0.555535 -0.095654 1
394 209 0.777717 0.597832 -0.085887 1
396 209 0.746967 0.629454 -0.068037 1
398 209 0.720414 0.651392 -0.051230 1
400 209 0.696567 0.667221 -0.038839 1
402 209 0.678093 0.678250 -0.026482 1
404 209 0.665834 0.681381 -0.007657 1
406 209 0.653293 0.682527 0.006988 1
408 209 0.649008 0.683368 0.014316 1
410 209 0.000000 0.000000 0.000000 0
412 209 0.000000 0.000000 0.000000 0
414 209 0.000000 0.000000 0.000000 0
416 209 0.000000 0.000000 0.000000 0
418 209 0.000000 0.000000 0.000000 0
420 209 0.000000 0.000000 0.000000 0
422 209 0.000000 0.000000 0.000000 0
424 209 0.000000 0.000000 0.000000 0
426 209 0.000000 0.000000 0.000000 0
428 209 0.000000 0.000000 0.000000 0
430 209 0.000000 0.000000 0.000000 0
432 209 0.000000 0.000000 0.000000 0
434 209 0.000000 0.000000 0.000000 0
436 209 0.000000 0.000000 0.000000 0
438 209 0.000000 0.000000 0.000000 0
440 209 0.000000 0.000000 0.000000 0
442 209 0.000000 0.000000 0.000000 0
444 209 0.000000 0.000000 0.000000 0
446 209 0.000000 0.000000 0.000000 0
308 211 0.000000 0.000000 0.000000 0
310 211 0.000000 0.000000 0.000000 0
312 211 0.000000 0.000000 0.000000 0
314 211 0.000000 0.000000 0.000000 0
316 211 0.840880 0.250774 0.458114 1
318 211 0.882631 0.140430 0.463688 1
320 211 0.938312 0.002909 0.441545 1
322 211 0.978286 -0.106761 0.429331 1
324 211 0.992760 -0.199614 0.437232 1
326 211 1.012632 -0.301652 0.444700 1
328 211 1.061903 -0.419562 0.422878 1
330 211 1.128164 -0.535896 0.375249 1
332 211 1.193223 -0.638904 0.331584 1
334 211 1.250041 -0.724367 0.290857 1
336 211 1.300815 -0.786665 0.249955 1
338 211 1.349705 -0.827888 0.200371 1
340 211 1.389997 -0.855065 0.140930 1
342 211 1.414756 -0.860357 0.077799 1
344 211 1.426261 -0.843017 0.024179 1
346 211 1.432263 -0.810345 -0.013818 1
348 211 1.434641 -0.765593 -0.036717 1
350 211 1.429873 -0.721156 -0.064832 1
352 211 1.408303 -0.677557 -0.109221 1
354 211 1.371446 -0.634102 -0.166875 1
356 211 1.328728 -0.591307 -0.222221 1
358 211 1.285140 -0.543078 -0.259758 1
360 211 1.246903 -0.492184 -0.274668 1
362 211 1.211720 -0.439626 -0.263910 1
364 211 1.176273 -0.383215 -0.239922 1
366 211 1.149108 -0.317243 -0.216527 1
368 211 1.129788 -0.243442 -0.205234 1
370 211 1.119386 -0.164752 -0.202037 1
372 211 1.113384 -0.081644 -0.198958 1
374 211 1.107827 0.004186 -0.198267 1
376 211 1.096998 0.089684 -0.201027 1
378 211 1.079730 0.171944 -0.197003 1
380 211 1.057794 0.245286 -0.180692 1
382 211 1.031120 0.310095 -0.154278 1
384 211 1.002027 0.370924 -0.126938 1
386 211 0.969207 0.429495 -0.109718 1
388 211 0.931756 0.484874 -0.102299 1
390 211 0.892491 0.540103 -0.100885 1
392 211 0.854578 0.590107 -0.094906 1
394 211 0.819361 0.630747 -0.077816 1
396 211 0.788948 0.659907 -0.049470 1
398 211 0.763170 0.678619 -0.021915 1
400 211 0.740441 0.691362 0.001054 1
402 211 0.725033 0.699168 0.025516 1
404 211 0.716774 0.700520 0.054178 1
406 211 0.708362 0.699792 0.077309 1
408 211 0.706273 0.700434 0.084196 1
410 211 0.000000 0.000000 0.000000 0
412 211 0.000000 0.000000 0.000000 0
414 211 0.000000 0.000000 0.000000 0
416 211 0.000000 0.000000 0.000000 0
418 211 0.000000 0.000000 0.000000 0
420 211 0.000000 0.000000 0.000000 0
422 211 0.000000 0.000000 0.000000 0
424 211 0.000000 0.000000 0.000000 0
426 211 0.000000 0.000000 0.000000 0
428 211 0.000000 0.000000 0.000000 0
430 211 0.000000 0.000000 0.000000 0
432 211 0.000000 0.000000 0.000000 0
434 211 0.000000 0.000000 0.000000 0
436 211 0.000000 0.000000 0.000000 0
438 211 0.000000 0.000000 0.000000 0
440 211 0.000000 0.000000 0.000000 0
442 211 0.000000 0.000000 0.000000 0
444 211 0.000000 0.000000 0.000000 0
446 211 0.000000 0.000000 0.000000 0
308 213 0.000000 0.000000 0.000000 0
310 213 0.000000 0.000000 0.000000 0
312 213 0.000000 0.000000 0.000000 0
314 213 0.000000 0.000000 0.000000 0
316 213 1.169215 0.229303 0.483831 1
318 213 1.204938 0.113849 0.486647 1
320 213 1.253756 -0.029582 0.471421 1
322 213 1.293566 -0.143853 0.474118 1
324 213 1.317260 -0.236820 0.478406 1
326 213 1.341445 -0.335638 0.461897 1
328 213 1.390459 -0.451829 0.409901 1
330 213 1.452836 -0.569545 0.343815 1
332 213 1.511938 -0.675115 0.292750 1
334 213 1.559925 -0.763241 0.250402 1
336 213 1.602778 -0.826865 0.212820 1
338 213 1.644161 -0.867277 0.180063 1
340 213 1.682074 -0.890598 0.144159 1
342 213 1.708298 -0.887887 0.106945 1
344 213 1.723178 -0.859014 0.068391 1
346 213 1.731868 -0.814125 0.037651 1
348 213 1.736713 -0.757295 0.020542 1
350 213 1.733167 -0.703402 -0.002885 1