TITLE = "B00033"
VARIABLES = "X", "Y", "Vx", "Vy", "Vz", "flag"
ZONE T="B00033", I=70, J=78
308 191 0.000000 0.000000 0.000000 0
310 191 0.000000 0.000000 0.000000 0
312 191 0.000000 0.000000 0.000000 0
314 191 0.000000 0.000000 0.000000 0
316 191 0.000000 0.000000 0.000000 0
318 191 0.000000 0.000000 0.000000 0
320 191 0.000000 0.000000 0.000000 0
322 191 0.000000 0.000000 0.000000 0
324 191 0.000000 0.000000 0.000000 0
326 191 0.000000 0.000000 0.000000 0
328 191 0.000000 0.000000 0.000000 0
330 191 0.000000 0.000000 0.000000 0
332 191 0.000000 0.000000 0.000000 0
334 191 0.000000 0.000000 0.000000 0
336 191 0.000000 0.000000 0.000000 0
338 191 0.000000 0.000000 0.000000 0
340 191 0.000000 0.000000 0.000000 0
342 191 0.000000 0.000000 0.000000 0
344 191 0.000000 0.000000 0.000000 0
346 191 0.000000 0.000000 0.000000 0
348 191 0.000000 0.000000 0.000000 0
350 191 0.000000 0.000000 0.000000 0
352 191 0.000000 0.000000 0.000000 0
354 191 0.000000 0.000000 0.000000 0
356 191 0.000000 0.000000 0.000000 0
358 191 0.000000 0.000000 0.000000 0
360 191 0.000000 0.000000 0.000000 0
362 191 0.000000 0.000000 0.000000 0
364 191 0.000000 0.000000 0.000000 0
366 191 0.000000 0.000000 0.000000 0
368 191 0.000000 0.000000 0.000000 0
370 191 0.000000 0.000000 0.000000 0
372 191 0.000000 0.000000 0.000000 0
374 191 0.000000 0.000000 0.000000 0
376 191 0.000000 0.000000 0.000000 0
378 191 0.000000 0.000000 0.000000 0
380 191 0.000000 0.000000 0.000000 0
382 191 0.000000 0.000000 0.000000 0
384 191 0.000000 0.000000 0.000000 0
386 191 0.000000 0.000000 0.000000 0
388 191 0.000000 0.000000 0.000000 0
390 191 0.000000 0.000000 0.000000 0
392 191 0.000000 0.000000 0.000000 0
394 191 0.000000 0.000000 0.000000 0
396 191 0.000000 0.000000 0.000000 0
398 191 0.000000 0.000000 0.000000 0
400 191 0.000000 0.000000 0.000000 0
402 191 0.000000 0.000000 0.000000 0
404 191 0.000000 0.000000 0.000000 0
406 191 0.000000 0.000000 0.000000 0
408 191 0.000000 0.000000 0.000000 0
410 191 0.000000 0.000000 0.000000 0
412 191 0.000000 0.000000 0.000000 0
414 191 0.000000 0.000000 0.000000 0
416 191 0.000000 0.000000 0.000000 0
418 191 0.000000 0.000000 0.000000 0
420 191 0.000000 0.000000 0.000000 0
422 191 0.000000 0.000000 0.000000 0
424 191 0.000000 0.000000 0.000000 0
426 191 0.000000 0.000000 0.000000 0
428 191 0.000000 0.000000 0.000000 0
430 191 0.000000 0.000000 0.000000 0
432 191 0.000000 0.000000 0.000000 0
434 191 0.000000 0.000000 0.000000 0
436 191 0.000000 0.000000 0.000000 0
438 191 0.000000 0.000000 0.000000 0
440 191 0.000000 0.000000 0.000000 0
442 191 0.000000 0.000000 0.000000 0
444 191 0.000000 0.000000 0.000000 0
446 191 0.000000 0.000000 0.000000 0
308 193 0.000000 0.000000 0.000000 0
310 193 0.000000 0.000000 0.000000 0
312 193 0.000000 0.000000 0.000000 0
314 193 0.000000 0.000000 0.000000 0
316 193 0.000000 0.000000 0.000000 0
318 193 0.000000 0.000000 0.000000 0
320 193 0.000000 0.000000 0.000000 0
322 193 0.000000 0.000000 0.000000 0
324 193 0.000000 0.000000 0.000000 0
326 193 0.000000 0.000000 0.000000 0
328 193 0.000000 0.000000 0.000000 0
330 193 0.000000 0.000000 0.000000 0
332 193 0.000000 0.000000 0.000000 0
334 193 0.000000 0.000000 0.000000 0
336 193 0.000000 0.000000 0.000000 0
338 193 0.000000 0.000000 0.000000 0
340 193 0.000000 0.000000 0.000000 0
342 193 0.000000 0.000000 0.000000 0
344 193 0.000000 0.000000 0.000000 0
346 193 0.000000 0.000000 0.000000 0
348 193 0.000000 0.000000 0.000000 0
350 193 0.000000 0.000000 0.000000 0
352 193 0.000000 0.000000 0.000000 0
354 193 0.000000 0.000000 0.000000 0
356 193 0.000000 0.000000 0.000000 0
358 193 0.000000 0.000000 0.000000 0
360 193 0.000000 0.000000 0.000000 0
362 193 0.000000 0.000000 0.000000 0
364 193 0.000000 0.000000 0.000000 0
366 193 0.000000 0.000000 0.000000 0
368 193 0.000000 0.000000 0.000000 0
370 193 0.000000 0.000000 0.000000 0
372 193 0.000000 0.000000 0.000000 0
374 193 0.000000 0.000000 0.000000 0
376 193 0.000000 0.000000 0.000000 0
378 193 0.000000 0.000000 0.000000 0
380 193 0.000000 0.000000 0.000000 0
382 193 0.000000 0.000000 0.000000 0
384 193 0.000000 0.000000 0.000000 0
386 193 0.000000 0.000000 0.000000 0
388 193 0.000000 0.000000 0.000000 0
390 193 0.000000 0.000000 0.000000 0
392 193 0.000000 0.000000 0.000000 0
394 193 0.000000 0.000000 0.000000 0
396 193 0.000000 0.000000 0.000000 0
398 193 0.000000 0.000000 0.000000 0
400 193 0.000000 0.000000 0.000000 0
402 193 0.000000 0.000000 0.000000 0
404 193 0.000000 0.000000 0.000000 0
406 193 0.000000 0.000000 0.000000 0
408 193 0.000000 0.000000 0.000000 0
410 193 0.000000 0.000000 0.000000 0
412 193 0.000000 0.000000 0.000000 0
414 193 0.000000 0.000000 0.000000 0
416 193 0.000000 0.000000 0.000000 0
418 193 0.000000 0.000000 0.000000 0
420 193 0.000000 0.000000 0.000000 0
422 193 0.000000 0.000000 0.000000 0
424 193 0.000000 0.000000 0.000000 0
426 193 0.000000 0.000000 0.000000 0
428 193 0.000000 0.000000 0.000000 0
430 193 0.000000 0.000000 0.000000 0
432 193 0.000000 0.000000 0.000000 0
434 193 0.000000 0.000000 0.000000 0
436 193 0.000000 0.000000 0.000000 0
438 193 0.000000 0.000000 0.000000 0
440 193 0.000000 0.000000 0.000000 0
442 193 0.000000 0.000000 0.000000 0
444 193 0.000000 0.000000 0.000000 0
446 193 0.000000 0.000000 0.000000 0
308 195 0.000000 0.000000 0.000000 0
310 195 0.000000 0.000000 0.000000 0
312 195 0.000000 0.000000 0.000000 0
314 195 0.000000 0.000000 0.000000 0
316 195 0.000000 0.000000 0.000000 0
318 195 0.000000 0.000000 0.000000 0
320 195 0.000000 0.000000 0.000000 0
322 195 0.000000 0.000000 0.000000 0
324 195 0.000000 0.000000 0.000000 0
326 195 0.000000 0.000000 0.000000 0
328 195 0.000000 0.000000 0.000000 0
330 195 0.000000 0.000000 0.000000 0
332 195 0.000000 0.000000 0.000000 0
334 195 0.000000 0.000000 0.000000 0
336 195 0.000000 0.000000 0.000000 0
338 195 0.000000 0.000000 0.000000 0
340 195 0.000000 0.000000 0.000000 0
342 195 0.000000 0.000000 0.000000 0
344 195 0.000000 0.000000 0.000000 0
346 195 0.000000 0.000000 0.000000 0
348 195 0.000000 0.000000 0.000000 0
350 195 0.000000 0.000000 0.000000 0
352 195 0.000000 0.000000 0.000000 0
354 195 0.000000 0.000000 0.000000 0
356 195 0.000000 0.000000 0.000000 0
358 195 0.000000 0.000000 0.000000 0
360 195 0.000000 0.000000 0.000000 0
362 195 0.000000 0.000000 0.000000 0
364 195 0.000000 0.000000 0.000000 0
366 195 0.000000 0.000000 0.000000 0
368 195 0.000000 0.000000 0.000000 0
370 195 0.000000 0.000000 0.000000 0
372 195 0.000000 0.000000 0.000000 0
374 195 0.000000 0.000000 0.000000 0
376 195 0.000000 0.000000 0.000000 0
378 195 0.000000 0.000000 0.000000 0
380 195 0.000000 0.000000 0.000000 0
382 195 0.000000 0.000000 0.000000 0
384 195 0.000000 0.000000 0.000000 0
386 195 0.000000 0.000000 0.000000 0
388 195 0.000000 0.000000 0.000000 0
390 195 0.000000 0.000000 0.000000 0
392 195 0.000000 0.000000 0.000000 0
394 195 0.000000 0.000000 0.000000 0
396 195 0.000000 0.000000 0.000000 0
398 195 0.000000 0.000000 0.000000 0
400 195 0.000000 0.000000 0.000000 0
402 195 0.000000 0.000000 0.000000 0
404 195 0.000000 0.000000 0.000000 0
406 195 0.000000 0.000000 0.000000 0
408 195 0.000000 0.000000 0.000000 0
410 195 0.000000 0.000000 0.000000 0
412 195 0.000000 0.000000 0.000000 0
414 195 0.000000 0.000000 0.000000 0
416 195 0.000000 0.000000 0.000000 0
418 195 0.000000 0.000000 0.000000 0
420 195 0.000000 0.000000 0.000000 0
422 195 0.000000 0.000000 0.000000 0
424 195 0.000000 0.000000 0.000000 0
426 195 0.000000 0.000000 0.000000 0
428 195 0.000000 0.000000 0.000000 0
430 195 0.000000 0.000000 0.000000 0
432 195 0.000000 0.000000 0.000000 0
434 195 0.000000 0.000000 0.000000 0
436 195 0.000000 0.000000 0.000000 0
438 195 0.000000 0.000000 0.000000 0
440 195 0.000000 0.000000 0.000000 0
442 195 0.000000 0.000000 0.000000 0
444 195 0.000000 0.000000 0.000000 0
446 195 0.000000 0.000000 0.000000 0
308 197 0.000000 0.000000 0.000000 0
310 197 0.000000 0.000000 0.000000 0
312 197 0.000000 0.000000 0.000000 0
314 197 0.000000 0.000000 0.000000 0
316 197 0.000000 0.000000 0.000000 0
318 197 0.307866 0.300080 -0.031715 1
320 197 0.267814 0.319798 -0.039269 1
322 197 0.233709 0.361458 -0.042157 1
324 197 0.194777 0.392941 -0.036546 1
326 197 0.152038 0.414391 -0.023257 1
328 197 0.104866 0.439782 -0.022512 1
330 197 0.051203 0.474062 -0.043515 1
332 197 -0.004888 0.499349 -0.068013 1
334 197 -0.060889 0.511517 -0.075570 1
336 197 -0.120528 0.508525 -0.066266 1
338 197 -0.185974 0.492275 -0.043480 1
340 197 -0.245814 0.466531 -0.025878 1
342 197 -0.299100 0.425913 -0.028353 1
344 197 -0.343470 0.360078 -0.036569 1
346 197 -0.371362 0.272912 -0.026733 1
348 197 -0.378705 0.172219 -0.001007 1
350 197 -0.378082 0.072898 0.019880 1
352 197 -0.363978 -0.027642 0.029773 1
354 197 -0.337380 -0.128114 0.037500 1
356 197 -0.304259 -0.228255 0.048519 1
358 197 -0.257900 -0.337473 0.065623 1
360 197 -0.206882 -0.439328 0.077263 1
362 197 -0.160654 -0.519095 0.061831 1
364 197 -0.120701 -0.590486 0.021027 1
366 197 -0.075064 -0.656954 -0.025211 1
368 197 -0.011261 -0.716901 -0.060191 1
370 197 0.063041 -0.774445 -0.080173 1
372 197 0.138019 -0.811078 -0.091120 1
374 197 0.212056 -0.827337 -0.104118 1
376 197 0.278004 -0.823407 -0.132401 1
378 197 0.330262 -0.799100 -0.178421 1
380 197 0.380215 -0.770432 -0.215588 1
382 197 0.437247 -0.742272 -0.227713 1
384 197 0.501878 -0.712250 -0.217911 1
386 197 0.561588 -0.676339 -0.204659 1
388 197 0.618023 -0.629568 -0.204646 1
390 197 0.675646 -0.572121 -0.228091 1
392 197 0.726888 -0.507641 -0.253897 1
394 197 0.768602 -0.441111 -0.266524 1
396 197 0.801542 -0.379052 -0.257386 1
398 197 0.826687 -0.318229 -0.233485 1
400 197 0.842477 -0.243284 -0.207945 1
402 197 0.850350 -0.163963 -0.177446 1
404 197 0.909609 -0.155507 -0.200464 1
406 197 0.000000 0.000000 0.000000 0
408 197 0.000000 0.000000 0.000000 0
410 197 0.000000 0.000000 0.000000 0
412 197 0.000000 0.000000 0.000000 0
414 197 0.000000 0.000000 0.000000 0
416 197 0.000000 0.000000 0.000000 0
418 197 0.000000 0.000000 0.000000 0
420 197 0.000000 0.000000 0.000000 0
422 197 0.000000 0.000000 0.000000 0
424 197 0.000000 0.000000 0.000000 0
426 197 0.000000 0.000000 0.000000 0
428 197 0.000000 0.000000 0.000000 0
430 197 0.000000 0.000000 0.000000 0
432 197 0.000000 0.000000 0.000000 0
434 197 0.000000 0.000000 0.000000 0
436 197 0.000000 0.000000 0.000000 0
438 197 0.000000 0.000000 0.000000 0
440 197 0.000000 0.000000 0.000000 0
442 197 0.000000 0.000000 0.000000 0
444 197 0.000000 0.000000 0.000000 0
446 197 0.000000 0.000000 0.000000 0
308 199 0.000000 0.000000 0.000000 0
310 199 0.000000 0.000000 0.000000 0
312 199 0.000000 0.000000 0.000000 0
314 199 0.000000 0.000000 0.000000 0
316 199 0.388177 0.261957 -0.017032 1
318 199 0.354775 0.296970 -0.029660 1
320 199 0.324581 0.353340 -0.039337 1
322 199 0.293355 0.411657 -0.036841 1
324 199 0.260325 0.466918 -0.022877 1
326 199 0.221836 0.507690 0.001836 1
328 199 0.175560 0.548536 0.022453 1
330 199 0.117970 0.588485 0.024067 1
332 199 0.055879 0.612633 0.018085 1
334 199 -0.001987 0.616625 0.022714 1
336 199 -0.056534 0.602305 0.035803 1
338 199 -0.107059 0.567800 0.056416 1
340 199 -0.149088 0.524429 0.070592 1
342 199 -0.181778 0.465875 0.068456 1
344 199 -0.207500 0.385574 0.070221 1
346 199 -0.218749 0.285368 0.093564 1
348 199 -0.209085 0.169946 0.136706 1
350 199 -0.195359 0.057762 0.171505 1
352 199 -0.168925 -0.056324 0.192582 1
354 199 -0.133800 -0.167194 0.204294 1
356 199 -0.093057 -0.277680 0.215813 1
358 199 -0.040192 -0.397403 0.230911 1
360 199 0.018048 -0.510293 0.239326 1
362 199 0.073528 -0.603214 0.218233 1
364 199 0.121473 -0.685136 0.170723 1
366 199 0.171963 -0.759448 0.113024 1
368 199 0.235311 -0.821385 0.067973 1
370 199 0.307060 -0.877949 0.040188 1
372 199 0.380004 -0.912056 0.023076 1
374 199 0.452878 -0.926098 0.001631 1
376 199 0.517164 -0.921162 -0.043164 1
378 199 0.564871 -0.897095 -0.109048 1
380 199 0.603279 -0.867565 -0.174757 1
382 199 0.642189 -0.835181 -0.216702 1
384 199 0.682670 -0.798248 -0.237474 1
386 199 0.714138 -0.754665 -0.246723 1
388 199 0.746158 -0.702088 -0.253379 1
390 199 0.781203 -0.640182 -0.265513 1
392 199 0.819292 -0.572821 -0.276944 1
394 199 0.852163 -0.501919 -0.280990 1
396 199 0.882290 -0.433019 -0.278686 1
398 199 0.909524 -0.364627 -0.271665 1
400 199 0.932002 -0.285943 -0.264273 1
402 199 0.948348 -0.206567 -0.245215 1
404 199 0.956819 -0.135257 -0.206579 1
406 199 1.006889 -0.118743 -0.219069 1
408 199 0.000000 0.000000 0.000000 0
410 199 0.000000 0.000000 0.000000 0
412 199 0.000000 0.000000 0.000000 0
414 199 0.000000 0.000000 0.000000 0
416 199 0.000000 0.000000 0.000000 0
418 199 0.000000 0.000000 0.000000 0
420 199 0.000000 0.000000 0.000000 0
422 199 0.000000 0.000000 0.000000 0
424 199 0.000000 0.000000 0.000000 0
426 199 0.000000 0.000000 0.000000 0
428 199 0.000000 0.000000 0.000000 0
430 199 0.000000 0.000000 0.000000 0
432 199 0.000000 0.000000 0.000000 0
434 199 0.000000 0.000000 0.000000 0
436 199 0.000000 0.000000 0.000000 0
438 199 0.000000 0.000000 0.000000 0
440 199 0.000000 0.000000 0.000000 0
442 199 0.000000 0.000000 0.000000 0
444 199 0.000000 0.000000 0.000000 0
446 199 0.000000 0.000000 0.000000 0
308 201 0.000000 0.000000 0.000000 0
310 201 0.000000 0.000000 0.000000 0
312 201 0.000000 0.000000 0.000000 0
314 201 0.000000 0.000000 0.000000 0
316 201 0.427157 0.271709 -0.028177 1
318 201 0.410407 0.315366 -0.041107 1
320 201 0.381530 0.382264 -0.048081 1
322 201 0.352529 0.456782 -0.043461 1
324 201 0.324312 0.529623 -0.029686 1
326 201 0.292650 0.588825 -0.004161 1
328 201 0.251951 0.640481 0.025729 1
330 201 0.199724 0.684224 0.049785 1
332 201 0.140781 0.705580 0.071341 1
334 201 0.090526 0.700474 0.098581 1
336 201 0.051109 0.671295 0.125342 1
338 201 0.020365 0.620251 0.150987 1
340 201 0.003058 0.557307 0.173425 1
342 201 -0.010036 0.483685 0.186125 1
344 201 -0.018833 0.390975 0.214037 1
346 201 -0.014700 0.280530 0.261379 1
348 201 0.007530 0.156928 0.322002 1
350 201 0.030977 0.036343 0.368900 1
352 201 0.060820 -0.084005 0.392989 1
354 201 0.094905 -0.201459 0.400312 1
356 201 0.132730 -0.317929 0.404312 1
358 201 0.179992 -0.444205 0.407386 1
360 201 0.235175 -0.565543 0.402938 1
362 201 0.290669 -0.668942 0.372088 1
364 201 0.344475 -0.764593 0.316930 1
366 201 0.401331 -0.848940 0.252539 1
368 201 0.469659 -0.917085 0.200305 1
370 201 0.543448 -0.974888 0.167356 1
372 201 0.617773 -1.006721 0.145927 1
374 201 0.691613 -1.016237 0.118307 1
376 201 0.757024 -1.006199 0.066174 1
378 201 0.803545 -0.976692 -0.010456 1
380 201 0.835527 -0.942060 -0.091320 1
382 201 0.858264 -0.901765 -0.158615 1
384 201 0.876062 -0.857299 -0.207978 1
386 201 0.881275 -0.808468 -0.242393 1
388 201 0.886128 -0.752980 -0.262499 1
390 201 0.899665 -0.690762 -0.274034 1
392 201 0.918154 -0.624069 -0.277989 1
394 201 0.938731 -0.552668 -0.278273 1
396 201 0.959081 -0.479842 -0.281565 1
398 201 0.981531 -0.405312 -0.287376 1
400 201 1.003714 -0.321780 -0.292401 1
402 201 1.024633 -0.238376 -0.283268 1
404 201 1.039073 -0.161986 -0.253274 1
406 201 1.045700 -0.089225 -0.226192 1
408 201 1.084469 -0.069706 -0.240689 1
410 201 0.000000 0.000000 0.000000 0
412 201 0.000000 0.000000 0.000000 0
414 201 0.000000 0.000000 0.000000 0
416 201 0.000000 0.000000 0.000000 0
418 201 0.000000 0.000000 0.000000 0
420 201 0.000000 0.000000 0.000000 0
422 201 0.000000 0.000000 0.000000 0
424 201 0.000000 0.000000 0.000000 0
426 201 0.000000 0.000000 0.000000 0
428 201 0.000000 0.000000 0.000000 0
430 201 0.000000 0.000000 0.000000 0
432 201 0.000000 0.000000 0.000000 0
434 201 0.000000 0.000000 0.000000 0
436 201 0.000000 0.000000 0.000000 0
438 201 0.000000 0.000000 0.000000 0
440 201 0.000000 0.000000 0.000000 0
442 201 0.000000 0.000000 0.000000 0
444 201 0.000000 0.000000 0.000000 0
446 201 0.000000 0.000000 0.000000 0
308 203 0.000000 0.000000 0.000000 0
310 203 0.000000 0.000000 0.000000 0
312 203 0.000000 0.000000 0.000000 0
314 203 0.000000 0.000000 0.000000 0
316 203 0.481687 0.282026 -0.042634 1
318 203 0.469331 0.328581 -0.052487 1
320 203 0.445141 0.403388 -0.057573 1
322 203 0.419277 0.488807 -0.052388 1
324 203 0.396219 0.575320 -0.038575 1
326 203 0.371180 0.643888 -0.015391 1
328 203 0.341172 0.701435 0.014487 1
330 203 0.300383 0.745753 0.045817 1
332 203 0.254233 0.763680 0.084309 1
334 203 0.218653 0.750140 0.132468 1
336 203 0.196912 0.709069 0.178379 1
338 203 0.188178 0.642634 0.220383 1
340 203 0.188496 0.566351 0.259599 1
342 203 0.191120 0.478689 0.299958 1
344 203 0.191749 0.377422 0.355108 1
346 203 0.205072 0.262277 0.424194 1
348 203 0.233274 0.139999 0.489923 1
350 203 0.258320 0.022508 0.533266 1
352 203 0.284063 -0.095503 0.547314 1
354 203 0.310358 -0.213381 0.545875 1
356 203 0.335322 -0.332706 0.539534 1
358 203 0.368999 -0.462948 0.529988 1
360 203 0.411583 -0.590413 0.510197 1
362 203 0.459800 -0.703887 0.468777 1
364 203 0.513199 -0.812006 0.408006 1
366 203 0.574930 -0.909841 0.338528 1
368 203 0.647514 -0.985864 0.283549 1
370 203 0.725225 -1.048169 0.247439 1
372 203 0.802445 -1.079373 0.223308 1
374 203 0.880400 -1.084693 0.194638 1
376 203 0.951787 -1.067848 0.146485 1
378 203 1.003488 -1.030804 0.078451 1
380 203 1.037007 -0.986394 0.005123 1
382 203 1.054444 -0.936811 -0.065206 1
384 203 1.058468 -0.883317 -0.131997 1
386 203 1.047273 -0.830275 -0.190088 1
388 203 1.033069 -0.773768 -0.231886 1
390 203 1.026991 -0.713056 -0.256056 1
392 203 1.029554 -0.649214 -0.265023 1
394 203 1.034312 -0.581497 -0.267563 1
396 203 1.043495 -0.510097 -0.273940 1
398 203 1.056036 -0.434547 -0.286469 1
400 203 1.072563 -0.348743 -0.298703 1
402 203 1.092632 -0.261255 -0.296689 1
404 203 1.108950 -0.179266 -0.276580 1
406 203 1.116652 -0.104238 -0.258382 1
408 203 1.118339 -0.074992 -0.253535 1
410 203 0.000000 0.000000 0.000000 0
412 203 0.000000 0.000000 0.000000 0
414 203 0.000000 0.000000 0.000000 0
416 203 0.000000 0.000000 0.000000 0
418 203 0.000000 0.000000 0.000000 0
420 203 0.000000 0.000000 0.000000 0
422 203 0.000000 0.000000 0.000000 0
424 203 0.000000 0.000000 0.000000 0
426 203 0.000000 0.000000 0.000000 0
428 203 0.000000 0.000000 0.000000 0
430 203 0.000000 0.000000 0.000000 0
432 203 0.000000 0.000000 0.000000 0
434 203 0.000000 0.000000 0.000000 0
436 203 0.000000 0.000000 0.000000 0
438 203 0.000000 0.000000 0.000000 0
440 203 0.000000 0.000000 0.000000 0
442 203 0.000000 0.000000 0.000000 0
444 203 0.000000 0.000000 0.000000 0
446 203 0.000000 0.000000 0.000000 0
308 205 0.000000 0.000000 0.000000 0
310 205 0.000000 0.000000 0.000000 0
312 205 0.000000 0.000000 0.000000 0
314 205 0.000000 0.000000 0.000000 0
316 205 0.541569 0.289659 -0.050996 1
318 205 0.535710 0.339142 -0.053554 1
320 205 0.522073 0.419703 -0.054970 1
322 205 0.503536 0.511925 -0.047869 1
324 205 0.487262 0.605008 -0.028768 1
326 205 0.472019 0.677643 -0.003470 1
328 205 0.453967 0.735554 0.024809 1
330 205 0.431514 0.777347 0.054115 1
332 205 0.402183 0.790995 0.095435 1
334 205 0.385060 0.769847 0.155251 1
336 205 0.380717 0.719389 0.219044 1
338 205 0.388234 0.643135 0.280746 1
340 205 0.402506 0.556382 0.342621 1
342 205 0.412807 0.460507 0.403758 1
344 205 0.417990 0.355733 0.473150 1
346 205 0.433685 0.244519 0.541104 1
348 205 0.461004 0.134587 0.585812 1
350 205 0.482998 0.028582 0.606588 1
352 205 0.503682 -0.082808 0.604494 1
354 205 0.521571 -0.199890 0.595564 1
356 205 0.535509 -0.322014 0.583762 1
358 205 0.555347 -0.458425 0.560504 1
360 205 0.587665 -0.593124 0.527266 1
362 205 0.629613 -0.717667 0.475361 1
364 205 0.680413 -0.839544 0.407236 1
366 205 0.740970 -0.950060 0.335759 1
368 205 0.810505 -1.036932 0.287151 1
370 205 0.885637 -1.105098 0.255871 1
372 205 0.961350 -1.137862 0.233731 1
374 205 1.041817 -1.140815 0.208592 1
376 205 1.118775 -1.118704 0.172802 1
378 205 1.176944 -1.073725 0.126698 1
380 205 1.215103 -1.020062 0.076616 1
382 205 1.234417 -0.957702 0.025447 1
384 205 1.236391 -0.893689 -0.038094 1
386 205 1.220644 -0.832032 -0.107117 1
388 205 1.198197 -0.771745 -0.167912 1
390 205 1.181056 -0.710382 -0.210863 1
392 205 1.169592 -0.649611 -0.235207 1
394 205 1.160558 -0.587100 -0.246489 1
396 205 1.152967 -0.522554 -0.257547 1
398 205 1.152758 -0.451203 -0.272955 1
400 205 1.157132 -0.367504 -0.290490 1
402 205 1.169641 -0.278668 -0.296419 1
404 205 1.181232 -0.193924 -0.287108 1
406 205 1.185607 -0.118728 -0.278033 1
408 205 1.186853 -0.090759 -0.275064 1
410 205 0.000000 0.000000 0.000000 0
412 205 0.000000 0.000000 0.000000 0
414 205 0.000000 0.000000 0.000000 0
416 205 0.000000 0.000000 0.000000 0
418 205 0.000000 0.000000 0.000000 0
420 205 0.000000 0.000000 0.000000 0
422 205 0.000000 0.000000 0.000000 0
424 205 0.000000 0.000000 0.000000 0
426 205 0.000000 0.000000 0.000000 0
428 205 0.000000 0.000000 0.000000 0
430 205 0.000000 0.000000 0.000000 0
432 205 0.000000 0.000000 0.000000 0
434 205 0.000000 0.000000 0.000000 0
436 205 0.000000 0.000000 0.000000 0
438 205 0.000000 0.000000 0.000000 0
440 205 0.000000 0.000000 0.000000 0
442 205 0.000000 0.000000 0.000000 0
444 205 0.000000 0.000000 0.000000 0
446 205 0.000000 0.000000 0.000000 0
308 207 0.000000 0.000000 0.000000 0
310 207 0.000000 0.000000 0.000000 0
312 207 0.000000 0.000000 0.000000 0
314 207 0.000000 0.000000 0.000000 0
316 207 0.619346 0.289912 -0.059352 1
318 207 0.615687 0.344531 -0.048591 1
320 207 0.613767 0.430557 -0.043479 1
322 207 0.606563 0.528654 -0.033478 1
324 207 0.598147 0.626821 -0.007644 1
326 207 0.592000 0.702362 0.022675 1
328 207 0.586794 0.760052 0.050976 1
330 207 0.579339 0.798862 0.078959 1
332 207 0.570355 0.806218 0.121642 1
334 207 0.569504 0.777731 0.189734 1
336 207 0.580123 0.718718 0.268606 1
338 207 0.600296 0.634767 0.348573 1
340 207 0.624485 0.542102 0.426003 1
342 207 0.641171 0.442034 0.497667 1
344 207 0.647893 0.339544 0.561714 1
346 207 0.663037 0.238210 0.608046 1
348 207 0.688278 0.141334 0.623383 1
350 207 0.708399 0.046582 0.618397 1
352 207 0.727238 -0.060084 0.604630 1
354 207 0.742469 -0.177951 0.592698 1
356 207 0.750553 -0.305072 0.573637 1
358 207 0.765596 -0.448208 0.536889 1
360 207 0.794985 -0.592213 0.489960 1
362 207 0.836213 -0.726914 0.426789 1
364 207 0.885453 -0.861789 0.347614 1
366 207 0.941869 -0.985874 0.274292 1
368 207 1.004041 -1.083053 0.238325 1
370 207 1.070130 -1.158976 0.222499 1
372 207 1.139123 -1.193575 0.205505 1
374 207 1.214544 -1.194963 0.184035 1
376 207 1.289414 -1.168887 0.157320 1
378 207 1.347213 -1.117771 0.128525 1
380 207 1.386609 -1.055440 0.101870 1
382 207 1.407667 -0.982734 0.071994 1
384 207 1.412208 -0.904921 0.028296 1
386 207 1.399349 -0.832640 -0.031086 1
388 207 1.377875 -0.763582 -0.093330 1
390 207 1.356821 -0.698066 -0.147381 1
392 207 1.336016 -0.637288 -0.187245 1
394 207 1.311968 -0.579388 -0.212881 1
396 207 1.288201 -0.521447 -0.231709 1
398 207 1.269077 -0.458156 -0.251767 1
400 207 1.259224 -0.379345 -0.273128 1
402 207 1.258592 -0.293147 -0.286258 1
404 207 1.261106 -0.208551 -0.288168 1
406 207 1.259852 -0.134051 -0.288281 1
408 207 1.260937 -0.107036 -0.285723 1
410 207 0.000000 0.000000 0.000000 0
412 207 0.000000 0.000000 0.000000 0
414 207 0.000000 0.000000 0.000000 0
416 207 0.000000 0.000000 0.000000 0
418 207 0.000000 0.000000 0.000000 0
420 207 0.000000 0.000000 0.000000 0
422 207 0.000000 0.000000 0.000000 0
424 207 0.000000 0.000000 0.000000 0
426 207 0.000000 0.000000 0.000000 0
428 207 0.000000 0.000000 0.000000 0
430 207 0.000000 0.000000 0.000000 0
432 207 0.000000 0.000000 0.000000 0
434 207 0.000000 0.000000 0.000000 0
436 207 0.000000 0.000000 0.000000 0
438 207 0.000000 0.000000 0.000000 0
440 207 0.000000 0.000000 0.000000 0
442 207 0.000000 0.000000 0.000000 0
444 207 0.000000 0.000000 0.000000 0
446 207 0.000000 0.000000 0.000000 0
308 209 0.000000 0.000000 0.000000 0
310 209 0.000000 0.000000 0.000000 0
312 209 0.000000 0.000000 0.000000 0
314 209 0.000000 0.000000 0.000000 0
316 209 0.735897 0.271435 -0.077606 1
318 209 0.735288 0.333417 -0.056067 1
320 209 0.747137 0.429790 -0.043658 1
322 209 0.751308 0.534064 -0.032483 1
324 209 0.751632 0.636758 -0.002355 1
326 209 0.754241 0.714242 0.032228 1
328 209 0.759268 0.771449 0.062294 1
330 209 0.766995 0.806249 0.093296 1
332 209 0.773757 0.807608 0.141754 1
334 209 0.789121 0.770809 0.221317 1
336 209 0.809287 0.705371 0.311826 1
338 209 0.836876 0.617039 0.403904 1
340 209 0.866714 0.524267 0.485619 1
342 209 0.886882 0.427945 0.550251 1
344 209 0.893850 0.334898 0.589032 1
346 209 0.907883 0.243695 0.606716 1
348 209 0.933186 0.156041 0.594555 1
350 209 0.955068 0.064907 0.579252 1
352 209 0.975689 -0.042424 0.566767 1
354 209 0.991981 -0.163589 0.553017 1
356 209 1.000600 -0.295124 0.523301 1
358 209 1.017203 -0.443715 0.477732 1
360 209 1.048970 -0.593028 0.428217 1
362 209 1.090613 -0.734986 0.359204 1
364 209 1.137039 -0.879006 0.273197 1
366 209 1.187051 -1.013895 0.203187 1
368 209 1.239353 -1.119960 0.182175 1
370 209 1.295130 -1.201071 0.176962 1
372 209 1.351174 -1.236437 0.160361 1
374 209 1.414320 -1.236066 0.138906 1
376 209 1.475198 -1.206386 0.116486 1
378 209 1.523347 -1.150404 0.096467 1
380 209 1.556113 -1.081345 0.082601 1
382 209 1.574130 -0.999199 0.070029 1
384 209 1.579423 -0.910978 0.046271 1
386 209 1.572614 -0.826725 0.012233 1
388 209 1.557556 -0.748752 -0.034976 1
390 209 1.539640 -0.675957 -0.084614 1
392 209 1.514915 -0.612406 -0.131564 1
394 209 1.481339 -0.555579 -0.168543 1
396 209 1.443263 -0.503088 -0.197140 1
398 209 1.409431 -0.447182 -0.222213 1
400 209 1.382004 -0.378018 -0.245957 1
402 209 1.367638 -0.298900 -0.262016 1
404 209 1.358183 -0.220177 -0.270773 1
406 209 1.350242 -0.149124 -0.276775 1
408 209 1.348641 -0.123230 -0.277450 1
410 209 0.000000 0.000000 0.000000 0
412 209 0.000000 0.000000 0.000000 0
414 209 0.000000 0.000000 0.000000 0
416 209 0.000000 0.000000 0.000000 0
418 209 0.000000 0.000000 0.000000 0
420 209 0.000000 0.000000 0.000000 0
422 209 0.000000 0.000000 0.000000 0
424 209 0.000000 0.000000 0.000000 0
426 209 0.000000 0.000000 0.000000 0
428 209 0.000000 0.000000 0.000000 0
430 209 0.000000 0.000000 0.000000 0
432 209 0.000000 0.000000 0.000000 0
434 209 0.000000 0.000000 0.000000 0
436 209 0.000000 0.000000 0.000000 0
438 209 0.000000 0.000000 0.000000 0
440 209 0.000000 0.000000 0.000000 0
442 209 0.000000 0.000000 0.000000 0
444 209 0.000000 0.000000 0.000000 0
446 209 0.000000 0.000000 0.000000 0
308 211 0.000000 0.000000 0.000000 0
310 211 0.000000 0.000000 0.000000 0
312 211 0.000000 0.000000 0.000000 0
314 211 0.000000 0.000000 0.000000 0
316 211 0.862775 0.235362 -0.082459 1
318 211 0.863604 0.307888 -0.061209 1
320 211 0.887561 0.417014 -0.049897 1
322 211 0.910229 0.530759 -0.043100 1
324 211 0.922300 0.636548 -0.012519 1
326 211 0.937414 0.714636 0.028225 1
328 211 0.954741 0.770722 0.064232 1
330 211 0.976808 0.802531 0.101448 1
332 211 1.000587 0.798768 0.158018 1
334 211 1.028585 0.757571 0.245242 1
336 211 1.058235 0.688175 0.343776 1
338 211 1.090100 0.599165 0.440271 1
340 211 1.123034 0.510038 0.519695 1
342 211 1.145774 0.420888 0.572140 1
344 211 1.153701 0.335936 0.589512 1
346 211 1.167616 0.252090 0.580348 1
348 211 1.194925 0.166594 0.553508 1
350 211 1.221954 0.074616 0.535047 1
352 211 1.246863 -0.035525 0.526247 1
354 211 1.267600 -0.159827 0.507081 1
356 211 1.280274 -0.293860 0.465292 1
358 211 1.299265 -0.443860 0.416381 1
360 211 1.331505 -0.596156 0.368206 1
362 211 1.370054 -0.742314 0.298311 1
364 211 1.411201 -0.893293 0.214274 1
366 211 1.455537 -1.035536 0.154301 1
368 211 1.500195 -1.147618 0.143480 1
370 211 1.545943 -1.232631 0.139687 1
372 211 1.589660 -1.268117 0.118348 1
374 211 1.634565 -1.265893 0.095457 1
376 211 1.678117 -1.233471 0.075789 1
378 211 1.709016 -1.172880 0.060767 1
380 211 1.729492 -1.098204 0.053337 1
382 211 1.738379 -1.009102 0.050680 1
384 211 1.739732 -0.912199 0.043574 1
386 211 1.734423 -0.819911 0.027608 1
388 211 1.725295 -0.732173 -0.000479 1
390 211 1.711363 -0.651827 -0.040750 1
392 211 1.687498 -0.582060 -0.085040 1
394 211 1.651074 -0.522503 -0.126276 1
396 211 1.607555 -0.470840 -0.160987 1
398 211 1.562862 -0.421160 -0.191752 1
400 211 1.521827 -0.361304 -0.218062 1
402 211 1.489488 -0.294812 -0.236641 1
404 211 1.467201 -0.225924 -0.248203 1
406 211 1.449628 -0.162390 -0.256935 1
408 211 1.444937 -0.137071 -0.260892 1
410 211 0.000000 0.000000 0.000000 0
412 211 0.000000 0.000000 0.000000 0
414 211 0.000000 0.000000 0.000000 0
416 211 0.000000 0.000000 0.000000 0
418 211 0.000000 0.000000 0.000000 0
420 211 0.000000 0.000000 0.000000 0
422 211 0.000000 0.000000 0.000000 0
424 211 0.000000 0.000000 0.000000 0
426 211 0.000000 0.000000 0.000000 0
428 211 0.000000 0.000000 0.000000 0
430 211 0.000000 0.000000 0.000000 0
432 211 0.000000 0.000000 0.000000 0
434 211 0.000000 0.000000 0.000000 0
436 211 0.000000 0.000000 0.000000 0
438 211 0.000000 0.000000 0.000000 0
440 211 0.000000 0.000000 0.000000 0
442 211 0.000000 0.000000 0.000000 0
444 211 0.000000 0.000000 0.000000 0
446 211 0.000000 0.000000 0.000000 0
308 213 0.000000 0.000000 0.000000 0
310 213 0.000000 0.000000 0.000000 0
312 213 0.000000 0.000000 0.000000 0
314 213 0.000000 0.000000 0.000000 0
316 213 0.996661 0.182735 -0.056158 1
318 213 0.993081 0.265032 -0.039557 1
320 213 1.033442 0.389238 -0.039835 1
322 213 1.077753 0.511982 -0.045661 1
324 213 1.111951 0.620541 -0.024417 1
326 213 1.143577 0.698077 0.018829 1
328 213 1.177907 0.752836 0.062720 1
330 213 1.214852 0.783162 0.106641 1
332 213 1.252102 0.778281 0.167500 1
334 213 1.290684 0.738237 0.254445 1
336 213 1.326192 0.671314 0.350279 1
338 213 1.361136 0.587181 0.441230 1
340 213 1.395057 0.503819 0.513746 1
342 213 1.418937 0.421361 0.557220 1
344 213 1.426902 0.340352 0.565259 1
346 213 1.439196 0.257348 0.545871 1
348 213 1.466996 0.168901 0.512524 1
350 213 1.498997 0.073342 0.493855 1
352 213 1.531715 -0.040635 0.483452 1
354 213 1.560368 -0.166951 0.455395 1
356 213 1.580618 -0.301124 0.407756 1
358 213 1.601145 -0.450006 0.363633 1