TITLE = "B00012"
VARIABLES = "X", "Y", "Vx", "Vy", "Vz", "flag"
ZONE T="B00012", I=70, J=78
308 191 0.000000 0.000000 0.000000 0
310 191 0.000000 0.000000 0.000000 0
312 191 0.000000 0.000000 0.000000 0
314 191 0.000000 0.000000 0.000000 0
316 191 0.000000 0.000000 0.000000 0
318 191 0.000000 0.000000 0.000000 0
320 191 0.000000 0.000000 0.000000 0
322 191 0.000000 0.000000 0.000000 0
324 191 0.000000 0.000000 0.000000 0
326 191 0.000000 0.000000 0.000000 0
328 191 0.000000 0.000000 0.000000 0
330 191 0.000000 0.000000 0.000000 0
332 191 0.000000 0.000000 0.000000 0
334 191 0.000000 0.000000 0.000000 0
336 191 0.000000 0.000000 0.000000 0
338 191 0.000000 0.000000 0.000000 0
340 191 0.000000 0.000000 0.000000 0
342 191 0.000000 0.000000 0.000000 0
344 191 0.000000 0.000000 0.000000 0
346 191 0.000000 0.000000 0.000000 0
348 191 0.000000 0.000000 0.000000 0
350 191 0.000000 0.000000 0.000000 0
352 191 0.000000 0.000000 0.000000 0
354 191 0.000000 0.000000 0.000000 0
356 191 0.000000 0.000000 0.000000 0
358 191 0.000000 0.000000 0.000000 0
360 191 0.000000 0.000000 0.000000 0
362 191 0.000000 0.000000 0.000000 0
364 191 0.000000 0.000000 0.000000 0
366 191 0.000000 0.000000 0.000000 0
368 191 0.000000 0.000000 0.000000 0
370 191 0.000000 0.000000 0.000000 0
372 191 0.000000 0.000000 0.000000 0
374 191 0.000000 0.000000 0.000000 0
376 191 0.000000 0.000000 0.000000 0
378 191 0.000000 0.000000 0.000000 0
380 191 0.000000 0.000000 0.000000 0
382 191 0.000000 0.000000 0.000000 0
384 191 0.000000 0.000000 0.000000 0
386 191 0.000000 0.000000 0.000000 0
388 191 0.000000 0.000000 0.000000 0
390 191 0.000000 0.000000 0.000000 0
392 191 0.000000 0.000000 0.000000 0
394 191 0.000000 0.000000 0.000000 0
396 191 0.000000 0.000000 0.000000 0
398 191 0.000000 0.000000 0.000000 0
400 191 0.000000 0.000000 0.000000 0
402 191 0.000000 0.000000 0.000000 0
404 191 0.000000 0.000000 0.000000 0
406 191 0.000000 0.000000 0.000000 0
408 191 0.000000 0.000000 0.000000 0
410 191 0.000000 0.000000 0.000000 0
412 191 0.000000 0.000000 0.000000 0
414 191 0.000000 0.000000 0.000000 0
416 191 0.000000 0.000000 0.000000 0
418 191 0.000000 0.000000 0.000000 0
420 191 0.000000 0.000000 0.000000 0
422 191 0.000000 0.000000 0.000000 0
424 191 0.000000 0.000000 0.000000 0
426 191 0.000000 0.000000 0.000000 0
428 191 0.000000 0.000000 0.000000 0
430 191 0.000000 0.000000 0.000000 0
432 191 0.000000 0.000000 0.000000 0
434 191 0.000000 0.000000 0.000000 0
436 191 0.000000 0.000000 0.000000 0
438 191 0.000000 0.000000 0.000000 0
440 191 0.000000 0.000000 0.000000 0
442 191 0.000000 0.000000 0.000000 0
444 191 0.000000 0.000000 0.000000 0
446 191 0.000000 0.000000 0.000000 0
308 193 0.000000 0.000000 0.000000 0
310 193 0.000000 0.000000 0.000000 0
312 193 0.000000 0.000000 0.000000 0
314 193 0.000000 0.000000 0.000000 0
316 193 0.000000 0.000000 0.000000 0
318 193 0.000000 0.000000 0.000000 0
320 193 0.000000 0.000000 0.000000 0
322 193 0.000000 0.000000 0.000000 0
324 193 0.000000 0.000000 0.000000 0
326 193 0.000000 0.000000 0.000000 0
328 193 0.000000 0.000000 0.000000 0
330 193 0.000000 0.000000 0.000000 0
332 193 0.000000 0.000000 0.000000 0
334 193 0.000000 0.000000 0.000000 0
336 193 0.000000 0.000000 0.000000 0
338 193 0.000000 0.000000 0.000000 0
340 193 0.000000 0.000000 0.000000 0
342 193 0.000000 0.000000 0.000000 0
344 193 0.000000 0.000000 0.000000 0
346 193 0.000000 0.000000 0.000000 0
348 193 0.000000 0.000000 0.000000 0
350 193 0.000000 0.000000 0.000000 0
352 193 0.000000 0.000000 0.000000 0
354 193 0.000000 0.000000 0.000000 0
356 193 0.000000 0.000000 0.000000 0
358 193 0.000000 0.000000 0.000000 0
360 193 0.000000 0.000000 0.000000 0
362 193 0.000000 0.000000 0.000000 0
364 193 0.000000 0.000000 0.000000 0
366 193 0.000000 0.000000 0.000000 0
368 193 0.000000 0.000000 0.000000 0
370 193 0.000000 0.000000 0.000000 0
372 193 0.000000 0.000000 0.000000 0
374 193 0.000000 0.000000 0.000000 0
376 193 0.000000 0.000000 0.000000 0
378 193 0.000000 0.000000 0.000000 0
380 193 0.000000 0.000000 0.000000 0
382 193 0.000000 0.000000 0.000000 0
384 193 0.000000 0.000000 0.000000 0
386 193 0.000000 0.000000 0.000000 0
388 193 0.000000 0.000000 0.000000 0
390 193 0.000000 0.000000 0.000000 0
392 193 0.000000 0.000000 0.000000 0
394 193 0.000000 0.000000 0.000000 0
396 193 0.000000 0.000000 0.000000 0
398 193 0.000000 0.000000 0.000000 0
400 193 0.000000 0.000000 0.000000 0
402 193 0.000000 0.000000 0.000000 0
404 193 0.000000 0.000000 0.000000 0
406 193 0.000000 0.000000 0.000000 0
408 193 0.000000 0.000000 0.000000 0
410 193 0.000000 0.000000 0.000000 0
412 193 0.000000 0.000000 0.000000 0
414 193 0.000000 0.000000 0.000000 0
416 193 0.000000 0.000000 0.000000 0
418 193 0.000000 0.000000 0.000000 0
420 193 0.000000 0.000000 0.000000 0
422 193 0.000000 0.000000 0.000000 0
424 193 0.000000 0.000000 0.000000 0
426 193 0.000000 0.000000 0.000000 0
428 193 0.000000 0.000000 0.000000 0
430 193 0.000000 0.000000 0.000000 0
432 193 0.000000 0.000000 0.000000 0
434 193 0.000000 0.000000 0.000000 0
436 193 0.000000 0.000000 0.000000 0
438 193 0.000000 0.000000 0.000000 0
440 193 0.000000 0.000000 0.000000 0
442 193 0.000000 0.000000 0.000000 0
444 193 0.000000 0.000000 0.000000 0
446 193 0.000000 0.000000 0.000000 0
308 195 0.000000 0.000000 0.000000 0
310 195 0.000000 0.000000 0.000000 0
312 195 0.000000 0.000000 0.000000 0
314 195 0.000000 0.000000 0.000000 0
316 195 0.000000 0.000000 0.000000 0
318 195 0.000000 0.000000 0.000000 0
320 195 0.000000 0.000000 0.000000 0
322 195 0.000000 0.000000 0.000000 0
324 195 0.000000 0.000000 0.000000 0
326 195 0.000000 0.000000 0.000000 0
328 195 0.000000 0.000000 0.000000 0
330 195 0.000000 0.000000 0.000000 0
332 195 0.000000 0.000000 0.000000 0
334 195 0.000000 0.000000 0.000000 0
336 195 0.000000 0.000000 0.000000 0
338 195 0.000000 0.000000 0.000000 0
340 195 0.000000 0.000000 0.000000 0
342 195 0.000000 0.000000 0.000000 0
344 195 0.000000 0.000000 0.000000 0
346 195 0.000000 0.000000 0.000000 0
348 195 0.000000 0.000000 0.000000 0
350 195 0.000000 0.000000 0.000000 0
352 195 0.000000 0.000000 0.000000 0
354 195 0.000000 0.000000 0.000000 0
356 195 0.000000 0.000000 0.000000 0
358 195 0.000000 0.000000 0.000000 0
360 195 0.000000 0.000000 0.000000 0
362 195 0.000000 0.000000 0.000000 0
364 195 0.000000 0.000000 0.000000 0
366 195 0.000000 0.000000 0.000000 0
368 195 0.000000 0.000000 0.000000 0
370 195 0.000000 0.000000 0.000000 0
372 195 0.000000 0.000000 0.000000 0
374 195 0.000000 0.000000 0.000000 0
376 195 0.000000 0.000000 0.000000 0
378 195 0.000000 0.000000 0.000000 0
380 195 0.000000 0.000000 0.000000 0
382 195 0.000000 0.000000 0.000000 0
384 195 0.000000 0.000000 0.000000 0
386 195 0.000000 0.000000 0.000000 0
388 195 0.000000 0.000000 0.000000 0
390 195 0.000000 0.000000 0.000000 0
392 195 0.000000 0.000000 0.000000 0
394 195 0.000000 0.000000 0.000000 0
396 195 0.000000 0.000000 0.000000 0
398 195 0.000000 0.000000 0.000000 0
400 195 0.000000 0.000000 0.000000 0
402 195 0.000000 0.000000 0.000000 0
404 195 0.000000 0.000000 0.000000 0
406 195 0.000000 0.000000 0.000000 0
408 195 0.000000 0.000000 0.000000 0
410 195 0.000000 0.000000 0.000000 0
412 195 0.000000 0.000000 0.000000 0
414 195 0.000000 0.000000 0.000000 0
416 195 0.000000 0.000000 0.000000 0
418 195 0.000000 0.000000 0.000000 0
420 195 0.000000 0.000000 0.000000 0
422 195 0.000000 0.000000 0.000000 0
424 195 0.000000 0.000000 0.000000 0
426 195 0.000000 0.000000 0.000000 0
428 195 0.000000 0.000000 0.000000 0
430 195 0.000000 0.000000 0.000000 0
432 195 0.000000 0.000000 0.000000 0
434 195 0.000000 0.000000 0.000000 0
436 195 0.000000 0.000000 0.000000 0
438 195 0.000000 0.000000 0.000000 0
440 195 0.000000 0.000000 0.000000 0
442 195 0.000000 0.000000 0.000000 0
444 195 0.000000 0.000000 0.000000 0
446 195 0.000000 0.000000 0.000000 0
308 197 0.000000 0.000000 0.000000 0
310 197 0.000000 0.000000 0.000000 0
312 197 0.000000 0.000000 0.000000 0
314 197 0.000000 0.000000 0.000000 0
316 197 0.000000 0.000000 0.000000 0
318 197 -0.222001 0.058480 -0.069930 1
320 197 -0.203284 0.012400 -0.061470 1
322 197 -0.204126 -0.054037 -0.060735 1
324 197 -0.207155 -0.117043 -0.072537 1
326 197 -0.199393 -0.174900 -0.076237 1
328 197 -0.178700 -0.231479 -0.066875 1
330 197 -0.148788 -0.281136 -0.063806 1
332 197 -0.105710 -0.319057 -0.079483 1
334 197 -0.054902 -0.348264 -0.121061 1
336 197 -0.007329 -0.368673 -0.163508 1
338 197 0.036161 -0.385022 -0.181909 1
340 197 0.081724 -0.401478 -0.178782 1
342 197 0.132156 -0.407005 -0.170068 1
344 197 0.192327 -0.401669 -0.162452 1
346 197 0.256498 -0.389595 -0.146900 1
348 197 0.318784 -0.371425 -0.128405 1
350 197 0.375121 -0.351949 -0.120033 1
352 197 0.419116 -0.328302 -0.125636 1
354 197 0.454069 -0.299375 -0.132954 1
356 197 0.485083 -0.268135 -0.137234 1
358 197 0.513890 -0.230292 -0.140509 1
360 197 0.539924 -0.189654 -0.147744 1
362 197 0.561442 -0.146932 -0.157083 1
364 197 0.582119 -0.102382 -0.162887 1
366 197 0.602453 -0.058377 -0.162053 1
368 197 0.614446 -0.016727 -0.155145 1
370 197 0.615391 0.020719 -0.147391 1
372 197 0.606394 0.058816 -0.146013 1
374 197 0.599708 0.100410 -0.151858 1
376 197 0.603404 0.144623 -0.157538 1
378 197 0.609735 0.188953 -0.152417 1
380 197 0.611744 0.230475 -0.134436 1
382 197 0.600468 0.264955 -0.107237 1
384 197 0.578917 0.292890 -0.083641 1
386 197 0.552799 0.318067 -0.078174 1
388 197 0.526981 0.343305 -0.086233 1
390 197 0.503834 0.370821 -0.096662 1
392 197 0.483918 0.399482 -0.105977 1
394 197 0.464349 0.428623 -0.118075 1
396 197 0.444442 0.458561 -0.125243 1
398 197 0.425129 0.486921 -0.125067 1
400 197 0.404618 0.512693 -0.116606 1
402 197 0.385719 0.534036 -0.101691 1
404 197 0.407671 0.557575 -0.066873 1
406 197 0.000000 0.000000 0.000000 0
408 197 0.000000 0.000000 0.000000 0
410 197 0.000000 0.000000 0.000000 0
412 197 0.000000 0.000000 0.000000 0
414 197 0.000000 0.000000 0.000000 0
416 197 0.000000 0.000000 0.000000 0
418 197 0.000000 0.000000 0.000000 0
420 197 0.000000 0.000000 0.000000 0
422 197 0.000000 0.000000 0.000000 0
424 197 0.000000 0.000000 0.000000 0
426 197 0.000000 0.000000 0.000000 0
428 197 0.000000 0.000000 0.000000 0
430 197 0.000000 0.000000 0.000000 0
432 197 0.000000 0.000000 0.000000 0
434 197 0.000000 0.000000 0.000000 0
436 197 0.000000 0.000000 0.000000 0
438 197 0.000000 0.000000 0.000000 0
440 197 0.000000 0.000000 0.000000 0
442 197 0.000000 0.000000 0.000000 0
444 197 0.000000 0.000000 0.000000 0
446 197 0.000000 0.000000 0.000000 0
308 199 0.000000 0.000000 0.000000 0
310 199 0.000000 0.000000 0.000000 0
312 199 0.000000 0.000000 0.000000 0
314 199 0.000000 0.000000 0.000000 0
316 199 -0.240661 0.144184 -0.089003 1
318 199 -0.249969 0.090341 -0.068758 1
320 199 -0.258591 0.013520 -0.043153 1
322 199 -0.256287 -0.064030 -0.042358 1
324 199 -0.247915 -0.139527 -0.057395 1
326 199 -0.229253 -0.207745 -0.073847 1
328 199 -0.202428 -0.275516 -0.084200 1
330 199 -0.172167 -0.336230 -0.096925 1
332 199 -0.127682 -0.386031 -0.120815 1
334 199 -0.069287 -0.428794 -0.156433 1
336 199 -0.011177 -0.459394 -0.188554 1
338 199 0.044491 -0.482696 -0.201432 1
340 199 0.097001 -0.500796 -0.206849 1
342 199 0.151900 -0.505599 -0.218818 1
344 199 0.214615 -0.498507 -0.236385 1
346 199 0.282484 -0.484176 -0.242190 1
348 199 0.351787 -0.461971 -0.232688 1
350 199 0.415814 -0.436802 -0.219992 1
352 199 0.466944 -0.403553 -0.209733 1
354 199 0.507472 -0.364684 -0.201511 1
356 199 0.545324 -0.322693 -0.192092 1
358 199 0.580835 -0.275162 -0.186729 1
360 199 0.611429 -0.226569 -0.186990 1
362 199 0.633896 -0.176408 -0.189969 1
364 199 0.652216 -0.126164 -0.192347 1
366 199 0.669186 -0.075786 -0.189565 1
368 199 0.681550 -0.028128 -0.180726 1
370 199 0.686653 0.015993 -0.170679 1
372 199 0.681899 0.060635 -0.167173 1
374 199 0.674735 0.107691 -0.171120 1
376 199 0.671827 0.156806 -0.172485 1
378 199 0.670526 0.204204 -0.161959 1
380 199 0.664831 0.248479 -0.138844 1
382 199 0.649191 0.285610 -0.110168 1
384 199 0.624886 0.317307 -0.088134 1
386 199 0.597278 0.347255 -0.084155 1
388 199 0.571253 0.376319 -0.089489 1
390 199 0.548878 0.405457 -0.089519 1
392 199 0.529275 0.433260 -0.087005 1
394 199 0.509679 0.460494 -0.085876 1
396 199 0.490417 0.489019 -0.083135 1
398 199 0.472681 0.516601 -0.075875 1
400 199 0.454104 0.541955 -0.066251 1
402 199 0.436560 0.562757 -0.055856 1
404 199 0.420758 0.576300 -0.045054 1
406 199 0.434427 0.591591 -0.033632 1
408 199 0.000000 0.000000 0.000000 0
410 199 0.000000 0.000000 0.000000 0
412 199 0.000000 0.000000 0.000000 0
414 199 0.000000 0.000000 0.000000 0
416 199 0.000000 0.000000 0.000000 0
418 199 0.000000 0.000000 0.000000 0
420 199 0.000000 0.000000 0.000000 0
422 199 0.000000 0.000000 0.000000 0
424 199 0.000000 0.000000 0.000000 0
426 199 0.000000 0.000000 0.000000 0
428 199 0.000000 0.000000 0.000000 0
430 199 0.000000 0.000000 0.000000 0
432 199 0.000000 0.000000 0.000000 0
434 199 0.000000 0.000000 0.000000 0
436 199 0.000000 0.000000 0.000000 0
438 199 0.000000 0.000000 0.000000 0
440 199 0.000000 0.000000 0.000000 0
442 199 0.000000 0.000000 0.000000 0
444 199 0.000000 0.000000 0.000000 0
446 199 0.000000 0.000000 0.000000 0
308 201 0.000000 0.000000 0.000000 0
310 201 0.000000 0.000000 0.000000 0
312 201 0.000000 0.000000 0.000000 0
314 201 0.000000 0.000000 0.000000 0
316 201 -0.243053 0.161472 -0.014627 1
318 201 -0.264232 0.098496 -0.022703 1
320 201 -0.264382 0.009159 -0.022456 1
322 201 -0.257386 -0.079555 -0.034070 1
324 201 -0.240133 -0.164115 -0.053623 1
326 201 -0.209352 -0.242603 -0.080153 1
328 201 -0.176127 -0.318578 -0.102619 1
330 201 -0.143297 -0.388667 -0.120405 1
332 201 -0.095851 -0.448859 -0.139399 1
334 201 -0.031330 -0.502173 -0.158589 1
336 201 0.033178 -0.542429 -0.177798 1
338 201 0.090307 -0.570286 -0.194405 1
340 201 0.138312 -0.589568 -0.220931 1
342 201 0.187437 -0.593558 -0.256140 1
344 201 0.242756 -0.585123 -0.293563 1
346 201 0.306276 -0.569243 -0.310604 1
348 201 0.374701 -0.544944 -0.299452 1
350 201 0.443183 -0.515368 -0.276290 1
352 201 0.499444 -0.475584 -0.254529 1
354 201 0.546249 -0.426668 -0.237972 1
356 201 0.590804 -0.374642 -0.225627 1
358 201 0.633619 -0.317202 -0.219569 1
360 201 0.670263 -0.260378 -0.216774 1
362 201 0.695195 -0.204289 -0.214772 1
364 201 0.712289 -0.148606 -0.211572 1
366 201 0.727095 -0.093738 -0.204752 1
368 201 0.739944 -0.040303 -0.191244 1
370 201 0.749436 0.009894 -0.177359 1
372 201 0.750424 0.061637 -0.171497 1
374 201 0.744830 0.115808 -0.174702 1
376 201 0.737562 0.170446 -0.175703 1
378 201 0.728362 0.221795 -0.163732 1
380 201 0.716644 0.267824 -0.140018 1
382 201 0.696625 0.306494 -0.113157 1
384 201 0.669508 0.340746 -0.094323 1
386 201 0.640158 0.374632 -0.091402 1
388 201 0.613909 0.407725 -0.093924 1
390 201 0.591891 0.439032 -0.088604 1
392 201 0.571667 0.467068 -0.078586 1
394 201 0.550874 0.493291 -0.070799 1
396 201 0.530531 0.520105 -0.061999 1
398 201 0.512669 0.545940 -0.051011 1
400 201 0.493424 0.569136 -0.042236 1
402 201 0.474765 0.586811 -0.036428 1
404 201 0.457666 0.596490 -0.031538 1
406 201 0.439975 0.601980 -0.032068 1
408 201 0.448507 0.609670 -0.035335 1
410 201 0.000000 0.000000 0.000000 0
412 201 0.000000 0.000000 0.000000 0
414 201 0.000000 0.000000 0.000000 0
416 201 0.000000 0.000000 0.000000 0
418 201 0.000000 0.000000 0.000000 0
420 201 0.000000 0.000000 0.000000 0
422 201 0.000000 0.000000 0.000000 0
424 201 0.000000 0.000000 0.000000 0
426 201 0.000000 0.000000 0.000000 0
428 201 0.000000 0.000000 0.000000 0
430 201 0.000000 0.000000 0.000000 0
432 201 0.000000 0.000000 0.000000 0
434 201 0.000000 0.000000 0.000000 0
436 201 0.000000 0.000000 0.000000 0
438 201 0.000000 0.000000 0.000000 0
440 201 0.000000 0.000000 0.000000 0
442 201 0.000000 0.000000 0.000000 0
444 201 0.000000 0.000000 0.000000 0
446 201 0.000000 0.000000 0.000000 0
308 203 0.000000 0.000000 0.000000 0
310 203 0.000000 0.000000 0.000000 0
312 203 0.000000 0.000000 0.000000 0
314 203 0.000000 0.000000 0.000000 0
316 203 -0.199327 0.173036 0.087631 1
318 203 -0.195902 0.097878 0.077230 1
320 203 -0.169589 -0.003636 0.043687 1
322 203 -0.147853 -0.100947 0.003203 1
324 203 -0.124328 -0.193795 -0.028536 1
326 203 -0.088967 -0.279786 -0.061175 1
328 203 -0.049585 -0.363854 -0.089671 1
330 203 -0.012003 -0.440352 -0.103588 1
332 203 0.040544 -0.507281 -0.107871 1
334 203 0.108548 -0.565636 -0.109340 1
336 203 0.172484 -0.609078 -0.122415 1
338 203 0.220958 -0.637306 -0.156188 1
340 203 0.255110 -0.655376 -0.208748 1
342 203 0.285999 -0.657593 -0.271178 1
344 203 0.326203 -0.648089 -0.320700 1
346 203 0.374944 -0.631679 -0.342556 1
348 203 0.431298 -0.607615 -0.329302 1
350 203 0.492270 -0.578191 -0.299952 1
352 203 0.545171 -0.536418 -0.270198 1
354 203 0.591868 -0.482991 -0.249884 1
356 203 0.638465 -0.422688 -0.238275 1
358 203 0.683989 -0.357160 -0.234594 1
360 203 0.724198 -0.292631 -0.231852 1
362 203 0.751273 -0.230814 -0.225534 1
364 203 0.768232 -0.170854 -0.216883 1
366 203 0.781264 -0.111304 -0.205034 1
368 203 0.793525 -0.053144 -0.188440 1
370 203 0.804958 0.003462 -0.171788 1
372 203 0.808862 0.061788 -0.164418 1
374 203 0.804557 0.123077 -0.167404 1
376 203 0.793792 0.183860 -0.170036 1
378 203 0.779241 0.238849 -0.160216 1
380 203 0.762009 0.286715 -0.139919 1
382 203 0.738694 0.326607 -0.117248 1
384 203 0.708696 0.363367 -0.101913 1
386 203 0.677602 0.400698 -0.097060 1
388 203 0.650721 0.437141 -0.094645 1
390 203 0.628255 0.470945 -0.084960 1
392 203 0.606659 0.499960 -0.072331 1
394 203 0.583135 0.526041 -0.062003 1
396 203 0.560213 0.551564 -0.052034 1
398 203 0.539913 0.574836 -0.041891 1
400 203 0.518552 0.594626 -0.037097 1
402 203 0.498481 0.608098 -0.035975 1
404 203 0.482204 0.612825 -0.034617 1
406 203 0.468067 0.614277 -0.034908 1
408 203 0.462296 0.614528 -0.037265 1
410 203 0.000000 0.000000 0.000000 0
412 203 0.000000 0.000000 0.000000 0
414 203 0.000000 0.000000 0.000000 0
416 203 0.000000 0.000000 0.000000 0
418 203 0.000000 0.000000 0.000000 0
420 203 0.000000 0.000000 0.000000 0
422 203 0.000000 0.000000 0.000000 0
424 203 0.000000 0.000000 0.000000 0
426 203 0.000000 0.000000 0.000000 0
428 203 0.000000 0.000000 0.000000 0
430 203 0.000000 0.000000 0.000000 0
432 203 0.000000 0.000000 0.000000 0
434 203 0.000000 0.000000 0.000000 0
436 203 0.000000 0.000000 0.000000 0
438 203 0.000000 0.000000 0.000000 0
440 203 0.000000 0.000000 0.000000 0
442 203 0.000000 0.000000 0.000000 0
444 203 0.000000 0.000000 0.000000 0
446 203 0.000000 0.000000 0.000000 0
308 205 0.000000 0.000000 0.000000 0
310 205 0.000000 0.000000 0.000000 0
312 205 0.000000 0.000000 0.000000 0
314 205 0.000000 0.000000 0.000000 0
316 205 -0.071066 0.169584 0.208375 1
318 205 -0.031658 0.084148 0.213645 1
320 205 0.039020 -0.031933 0.165043 1
322 205 0.085978 -0.136584 0.104430 1
324 205 0.113767 -0.234608 0.063600 1
326 205 0.147277 -0.326720 0.026821 1
328 205 0.189711 -0.415875 -0.004569 1
330 205 0.232804 -0.496663 -0.015067 1
332 205 0.287011 -0.565534 -0.010615 1
334 205 0.351028 -0.622818 -0.010603 1
336 205 0.408283 -0.663611 -0.033922 1
338 205 0.446300 -0.688114 -0.091499 1
340 205 0.463063 -0.702648 -0.172387 1
342 205 0.475278 -0.702473 -0.251610 1
344 205 0.493776 -0.691131 -0.307443 1
346 205 0.523817 -0.674085 -0.331149 1
348 205 0.559466 -0.650781 -0.322326 1
350 205 0.601372 -0.623621 -0.298278 1
352 205 0.639108 -0.584121 -0.271844 1
354 205 0.673307 -0.531086 -0.253174 1
356 205 0.711344 -0.468103 -0.244419 1
358 205 0.749177 -0.396923 -0.244379 1
360 205 0.786293 -0.326335 -0.241813 1
362 205 0.812048 -0.258768 -0.230282 1
364 205 0.828044 -0.193371 -0.215083 1
366 205 0.839268 -0.128191 -0.200134 1
368 205 0.849215 -0.062813 -0.184461 1
370 205 0.859321 0.000031 -0.168966 1
372 205 0.862912 0.065031 -0.160366 1
374 205 0.858251 0.131923 -0.161524 1
376 205 0.845006 0.197630 -0.164235 1
378 205 0.826152 0.256442 -0.157584 1
380 205 0.804813 0.307174 -0.142320 1
382 205 0.777508 0.350653 -0.125660 1
384 205 0.744992 0.390730 -0.111717 1
386 205 0.711751 0.431345 -0.101493 1
388 205 0.682938 0.469492 -0.091949 1
390 205 0.657971 0.504077 -0.077673 1
392 205 0.633037 0.533314 -0.063987 1
394 205 0.605697 0.559082 -0.054558 1
396 205 0.577697 0.582626 -0.047484 1
398 205 0.553656 0.602713 -0.041603 1
400 205 0.530260 0.617651 -0.042394 1
402 205 0.511850 0.626466 -0.044200 1
404 205 0.500952 0.626776 -0.041663 1
406 205 0.493995 0.624090 -0.037952 1
408 205 0.491622 0.622673 -0.035800 1
410 205 0.000000 0.000000 0.000000 0
412 205 0.000000 0.000000 0.000000 0
414 205 0.000000 0.000000 0.000000 0
416 205 0.000000 0.000000 0.000000 0
418 205 0.000000 0.000000 0.000000 0
420 205 0.000000 0.000000 0.000000 0
422 205 0.000000 0.000000 0.000000 0
424 205 0.000000 0.000000 0.000000 0
426 205 0.000000 0.000000 0.000000 0
428 205 0.000000 0.000000 0.000000 0
430 205 0.000000 0.000000 0.000000 0
432 205 0.000000 0.000000 0.000000 0
434 205 0.000000 0.000000 0.000000 0
436 205 0.000000 0.000000 0.000000 0
438 205 0.000000 0.000000 0.000000 0
440 205 0.000000 0.000000 0.000000 0
442 205 0.000000 0.000000 0.000000 0
444 205 0.000000 0.000000 0.000000 0
446 205 0.000000 0.000000 0.000000 0
308 207 0.000000 0.000000 0.000000 0
310 207 0.000000 0.000000 0.000000 0
312 207 0.000000 0.000000 0.000000 0
314 207 0.000000 0.000000 0.000000 0
316 207 0.127809 0.166546 0.298446 1
318 207 0.187557 0.065460 0.322605 1
320 207 0.288152 -0.064415 0.283138 1
322 207 0.357769 -0.177167 0.230548 1
324 207 0.386971 -0.278564 0.195259 1
326 207 0.417204 -0.374304 0.161476 1
328 207 0.463216 -0.467420 0.125955 1
330 207 0.511415 -0.550278 0.109507 1
332 207 0.564554 -0.619463 0.107504 1
334 207 0.622448 -0.674642 0.094698 1
336 207 0.674757 -0.711492 0.054747 1
338 207 0.710790 -0.731385 -0.021255 1
340 207 0.722516 -0.741783 -0.118131 1
342 207 0.720424 -0.737830 -0.207533 1
344 207 0.722230 -0.723442 -0.264823 1
346 207 0.731191 -0.703507 -0.288904 1
348 207 0.747296 -0.678703 -0.286384 1
350 207 0.766988 -0.651836 -0.276613 1
352 207 0.783515 -0.614773 -0.265687 1
354 207 0.797604 -0.565163 -0.258568 1
356 207 0.814245 -0.504714 -0.258763 1
358 207 0.835779 -0.433566 -0.263087 1
360 207 0.860419 -0.359982 -0.260329 1
362 207 0.880704 -0.288325 -0.242568 1
364 207 0.893784 -0.217316 -0.219725 1
366 207 0.902644 -0.144744 -0.202362 1
368 207 0.910123 -0.071369 -0.189871 1
370 207 0.917742 -0.000077 -0.178228 1
372 207 0.920653 0.070572 -0.167926 1
374 207 0.915737 0.142527 -0.163779 1
376 207 0.900752 0.212100 -0.163133 1
378 207 0.878233 0.275009 -0.157000 1
380 207 0.852000 0.330553 -0.145896 1
382 207 0.820779 0.378654 -0.132575 1
384 207 0.785530 0.423443 -0.118524 1
386 207 0.750464 0.466590 -0.104056 1
388 207 0.718086 0.505348 -0.088483 1
390 207 0.688474 0.539076 -0.070836 1
392 207 0.658603 0.567079 -0.056579 1
394 207 0.626129 0.591362 -0.048274 1
396 207 0.593746 0.612457 -0.042338 1
398 207 0.565688 0.627717 -0.038475 1
400 207 0.541728 0.637441 -0.039842 1
402 207 0.526742 0.640946 -0.040084 1
404 207 0.522845 0.637083 -0.032798 1
406 207 0.522877 0.630726 -0.023629 1
408 207 0.524493 0.627712 -0.016123 1
410 207 0.000000 0.000000 0.000000 0
412 207 0.000000 0.000000 0.000000 0
414 207 0.000000 0.000000 0.000000 0
416 207 0.000000 0.000000 0.000000 0
418 207 0.000000 0.000000 0.000000 0
420 207 0.000000 0.000000 0.000000 0
422 207 0.000000 0.000000 0.000000 0
424 207 0.000000 0.000000 0.000000 0
426 207 0.000000 0.000000 0.000000 0
428 207 0.000000 0.000000 0.000000 0
430 207 0.000000 0.000000 0.000000 0
432 207 0.000000 0.000000 0.000000 0
434 207 0.000000 0.000000 0.000000 0
436 207 0.000000 0.000000 0.000000 0
438 207 0.000000 0.000000 0.000000 0
440 207 0.000000 0.000000 0.000000 0
442 207 0.000000 0.000000 0.000000 0
444 207 0.000000 0.000000 0.000000 0
446 207 0.000000 0.000000 0.000000 0
308 209 0.000000 0.000000 0.000000 0
310 209 0.000000 0.000000 0.000000 0
312 209 0.000000 0.000000 0.000000 0
314 209 0.000000 0.000000 0.000000 0
316 209 0.445065 0.146566 0.358593 1
318 209 0.513722 0.035332 0.381515 1
320 209 0.612547 -0.103920 0.357627 1
322 209 0.675617 -0.218985 0.323206 1
324 209 0.697598 -0.320302 0.306138 1
326 209 0.728444 -0.418444 0.282539 1
328 209 0.782623 -0.514566 0.244026 1
330 209 0.838169 -0.598461 0.212892 1
332 209 0.889644 -0.666779 0.194799 1
334 209 0.941854 -0.719067 0.165719 1
336 209 0.995262 -0.752191 0.123593 1
338 209 1.039852 -0.766931 0.054477 1
340 209 1.057431 -0.771751 -0.035309 1
342 209 1.050623 -0.762082 -0.118879 1
344 209 1.035181 -0.740697 -0.176787 1
346 209 1.025272 -0.714426 -0.204038 1
348 209 1.018485 -0.682508 -0.213120 1
350 209 1.017815 -0.651816 -0.223087 1
352 209 1.010682 -0.614540 -0.238516 1
354 209 0.995970 -0.569228 -0.254274 1
356 209 0.982035 -0.515172 -0.269643 1
358 209 0.971070 -0.451176 -0.280967 1
360 209 0.973555 -0.381505 -0.277603 1
362 209 0.976286 -0.311310 -0.253411 1
364 209 0.979135 -0.237852 -0.225928 1
366 209 0.979890 -0.159519 -0.209490 1
368 209 0.981492 -0.078276 -0.202387 1
370 209 0.985533 0.000408 -0.194542 1
372 209 0.987677 0.077917 -0.181517 1
374 209 0.982778 0.154429 -0.171734 1
376 209 0.965662 0.228759 -0.166196 1
378 209 0.939011 0.296724 -0.159145 1
380 209 0.907495 0.358152 -0.148425 1
382 209 0.872784 0.411464 -0.132750 1
384 209 0.836590 0.459936 -0.114523 1
386 209 0.799688 0.505236 -0.096441 1
388 209 0.762347 0.543686 -0.080600 1
390 209 0.724997 0.575658 -0.065022 1
392 209 0.689566 0.601566 -0.051219 1
394 209 0.653677 0.623448 -0.039592 1
396 209 0.620194 0.640812 -0.025235 1
398 209 0.592388 0.651118 -0.012730 1
400 209 0.570588 0.653728 -0.003164 1
402 209 0.558771 0.651915 0.004463 1
404 209 0.559393 0.643407 0.019069 1
406 209 0.563330 0.633538 0.032825 1
408 209 0.566328 0.630269 0.040994 1
410 209 0.000000 0.000000 0.000000 0
412 209 0.000000 0.000000 0.000000 0
414 209 0.000000 0.000000 0.000000 0
416 209 0.000000 0.000000 0.000000 0
418 209 0.000000 0.000000 0.000000 0
420 209 0.000000 0.000000 0.000000 0
422 209 0.000000 0.000000 0.000000 0
424 209 0.000000 0.000000 0.000000 0
426 209 0.000000 0.000000 0.000000 0
428 209 0.000000 0.000000 0.000000 0
430 209 0.000000 0.000000 0.000000 0
432 209 0.000000 0.000000 0.000000 0
434 209 0.000000 0.000000 0.000000 0
436 209 0.000000 0.000000 0.000000 0
438 209 0.000000 0.000000 0.000000 0
440 209 0.000000 0.000000 0.000000 0
442 209 0.000000 0.000000 0.000000 0
444 209 0.000000 0.000000 0.000000 0
446 209 0.000000 0.000000 0.000000 0
308 211 0.000000 0.000000 0.000000 0
310 211 0.000000 0.000000 0.000000 0
312 211 0.000000 0.000000 0.000000 0
314 211 0.000000 0.000000 0.000000 0
316 211 0.807342 0.107252 0.439050 1
318 211 0.884044 -0.010333 0.444882 1
320 211 0.967063 -0.150776 0.414509 1
322 211 1.009672 -0.262593 0.387609 1
324 211 1.026311 -0.360713 0.376531 1
326 211 1.062522 -0.459911 0.357400 1
328 211 1.127305 -0.559803 0.314676 1
330 211 1.190493 -0.645755 0.270395 1
332 211 1.241685 -0.713275 0.235594 1
334 211 1.290154 -0.763104 0.200865 1
336 211 1.343844 -0.791662 0.170970 1
338 211 1.395011 -0.800897 0.124691 1
340 211 1.419896 -0.798189 0.060376 1
342 211 1.412912 -0.780179 -0.006182 1
344 211 1.387545 -0.749331 -0.063160 1
346 211 1.359759 -0.712124 -0.100686 1
348 211 1.337128 -0.670711 -0.123123 1
350 211 1.318069 -0.631872 -0.155300 1
352 211 1.291844 -0.591900 -0.194432 1
354 211 1.250422 -0.548241 -0.233652 1
356 211 1.203615 -0.500167 -0.266727 1
358 211 1.159713 -0.444676 -0.286906 1
360 211 1.127654 -0.384996 -0.286158 1
362 211 1.105614 -0.321573 -0.261006 1
364 211 1.086011 -0.251458 -0.234146 1
366 211 1.071842 -0.171964 -0.221229 1
368 211 1.062215 -0.086723 -0.218478 1
370 211 1.059186 -0.001763 -0.213046 1
372 211 1.058914 0.082285 -0.197504 1
374 211 1.053323 0.165895 -0.182500 1
376 211 1.034204 0.246061 -0.173859 1
378 211 1.003714 0.320858 -0.165452 1
380 211 0.967813 0.388465 -0.153215 1
382 211 0.930416 0.446796 -0.132335 1
384 211 0.893907 0.499030 -0.106717 1
386 211 0.855636 0.546088 -0.084577 1
388 211 0.812161 0.584266 -0.069428 1
390 211 0.767956 0.614682 -0.056603 1
392 211 0.728633 0.638035 -0.039907 1
394 211 0.693270 0.657075 -0.017291 1
396 211 0.663148 0.670912 0.013819 1
398 211 0.638848 0.676203 0.042839 1
400 211 0.619212 0.673566 0.064344 1
402 211 0.609082 0.665730 0.083274 1
404 211 0.610532 0.653103 0.104390 1
406 211 0.615363 0.639923 0.121479 1
408 211 0.621389 0.636638 0.126864 1
410 211 0.000000 0.000000 0.000000 0
412 211 0.000000 0.000000 0.000000 0
414 211 0.000000 0.000000 0.000000 0
416 211 0.000000 0.000000 0.000000 0
418 211 0.000000 0.000000 0.000000 0
420 211 0.000000 0.000000 0.000000 0
422 211 0.000000 0.000000 0.000000 0
424 211 0.000000 0.000000 0.000000 0
426 211 0.000000 0.000000 0.000000 0
428 211 0.000000 0.000000 0.000000 0
430 211 0.000000 0.000000 0.000000 0
432 211 0.000000 0.000000 0.000000 0
434 211 0.000000 0.000000 0.000000 0
436 211 0.000000 0.000000 0.000000 0
438 211 0.000000 0.000000 0.000000 0
440 211 0.000000 0.000000 0.000000 0
442 211 0.000000 0.000000 0.000000 0
444 211 0.000000 0.000000 0.000000 0
446 211 0.000000 0.000000 0.000000 0
308 213 0.000000 0.000000 0.000000 0
310 213 0.000000 0.000000 0.000000 0
312 213 0.000000 0.000000 0.000000 0
314 213 0.000000 0.000000 0.000000 0
316 213 1.138423 0.073436 0.509052 1
318 213 1.213488 -0.046775 0.496788 1
320 213 1.286300 -0.187048 0.457549 1
322 213 1.321380 -0.297618 0.431529 1
324 213 1.344916 -0.394563 0.410750 1
326 213 1.391562 -0.494858 0.377299 1
328 213 1.464908 -0.598495 0.321905 1
330 213 1.530564 -0.687211 0.268565 1
332 213 1.579439 -0.754787 0.226487 1
334 213 1.621406 -0.801479 0.194170 1
336 213 1.669686 -0.825275 0.178067 1
338 213 1.717375 -0.826335 0.159350 1
340 213 1.743219 -0.814959 0.122305 1
342 213 1.738667 -0.786558 0.080396 1
344 213 1.712550 -0.744641 0.030168 1
346 213 1.680125 -0.696172 -0.013683 1
348 213 1.651054 -0.643125 -0.049435 1
350 213 1.624857 -0.596292 -0.093738 1