TITLE = "B00006"
VARIABLES = "X", "Y", "Vx", "Vy", "Vz", "flag"
ZONE T="B00006", I=70, J=78
308 191 0.000000 0.000000 0.000000 0
310 191 0.000000 0.000000 0.000000 0
312 191 0.000000 0.000000 0.000000 0
314 191 0.000000 0.000000 0.000000 0
316 191 0.000000 0.000000 0.000000 0
318 191 0.000000 0.000000 0.000000 0
320 191 0.000000 0.000000 0.000000 0
322 191 0.000000 0.000000 0.000000 0
324 191 0.000000 0.000000 0.000000 0
326 191 0.000000 0.000000 0.000000 0
328 191 0.000000 0.000000 0.000000 0
330 191 0.000000 0.000000 0.000000 0
332 191 0.000000 0.000000 0.000000 0
334 191 0.000000 0.000000 0.000000 0
336 191 0.000000 0.000000 0.000000 0
338 191 0.000000 0.000000 0.000000 0
340 191 0.000000 0.000000 0.000000 0
342 191 0.000000 0.000000 0.000000 0
344 191 0.000000 0.000000 0.000000 0
346 191 0.000000 0.000000 0.000000 0
348 191 0.000000 0.000000 0.000000 0
350 191 0.000000 0.000000 0.000000 0
352 191 0.000000 0.000000 0.000000 0
354 191 0.000000 0.000000 0.000000 0
356 191 0.000000 0.000000 0.000000 0
358 191 0.000000 0.000000 0.000000 0
360 191 0.000000 0.000000 0.000000 0
362 191 0.000000 0.000000 0.000000 0
364 191 0.000000 0.000000 0.000000 0
366 191 0.000000 0.000000 0.000000 0
368 191 0.000000 0.000000 0.000000 0
370 191 0.000000 0.000000 0.000000 0
372 191 0.000000 0.000000 0.000000 0
374 191 0.000000 0.000000 0.000000 0
376 191 0.000000 0.000000 0.000000 0
378 191 0.000000 0.000000 0.000000 0
380 191 0.000000 0.000000 0.000000 0
382 191 0.000000 0.000000 0.000000 0
384 191 0.000000 0.000000 0.000000 0
386 191 0.000000 0.000000 0.000000 0
388 191 0.000000 0.000000 0.000000 0
390 191 0.000000 0.000000 0.000000 0
392 191 0.000000 0.000000 0.000000 0
394 191 0.000000 0.000000 0.000000 0
396 191 0.000000 0.000000 0.000000 0
398 191 0.000000 0.000000 0.000000 0
400 191 0.000000 0.000000 0.000000 0
402 191 0.000000 0.000000 0.000000 0
404 191 0.000000 0.000000 0.000000 0
406 191 0.000000 0.000000 0.000000 0
408 191 0.000000 0.000000 0.000000 0
410 191 0.000000 0.000000 0.000000 0
412 191 0.000000 0.000000 0.000000 0
414 191 0.000000 0.000000 0.000000 0
416 191 0.000000 0.000000 0.000000 0
418 191 0.000000 0.000000 0.000000 0
420 191 0.000000 0.000000 0.000000 0
422 191 0.000000 0.000000 0.000000 0
424 191 0.000000 0.000000 0.000000 0
426 191 0.000000 0.000000 0.000000 0
428 191 0.000000 0.000000 0.000000 0
430 191 0.000000 0.000000 0.000000 0
432 191 0.000000 0.000000 0.000000 0
434 191 0.000000 0.000000 0.000000 0
436 191 0.000000 0.000000 0.000000 0
438 191 0.000000 0.000000 0.000000 0
440 191 0.000000 0.000000 0.000000 0
442 191 0.000000 0.000000 0.000000 0
444 191 0.000000 0.000000 0.000000 0
446 191 0.000000 0.000000 0.000000 0
308 193 0.000000 0.000000 0.000000 0
310 193 0.000000 0.000000 0.000000 0
312 193 0.000000 0.000000 0.000000 0
314 193 0.000000 0.000000 0.000000 0
316 193 0.000000 0.000000 0.000000 0
318 193 0.000000 0.000000 0.000000 0
320 193 0.000000 0.000000 0.000000 0
322 193 0.000000 0.000000 0.000000 0
324 193 0.000000 0.000000 0.000000 0
326 193 0.000000 0.000000 0.000000 0
328 193 0.000000 0.000000 0.000000 0
330 193 0.000000 0.000000 0.000000 0
332 193 0.000000 0.000000 0.000000 0
334 193 0.000000 0.000000 0.000000 0
336 193 0.000000 0.000000 0.000000 0
338 193 0.000000 0.000000 0.000000 0
340 193 0.000000 0.000000 0.000000 0
342 193 0.000000 0.000000 0.000000 0
344 193 0.000000 0.000000 0.000000 0
346 193 0.000000 0.000000 0.000000 0
348 193 0.000000 0.000000 0.000000 0
350 193 0.000000 0.000000 0.000000 0
352 193 0.000000 0.000000 0.000000 0
354 193 0.000000 0.000000 0.000000 0
356 193 0.000000 0.000000 0.000000 0
358 193 0.000000 0.000000 0.000000 0
360 193 0.000000 0.000000 0.000000 0
362 193 0.000000 0.000000 0.000000 0
364 193 0.000000 0.000000 0.000000 0
366 193 0.000000 0.000000 0.000000 0
368 193 0.000000 0.000000 0.000000 0
370 193 0.000000 0.000000 0.000000 0
372 193 0.000000 0.000000 0.000000 0
374 193 0.000000 0.000000 0.000000 0
376 193 0.000000 0.000000 0.000000 0
378 193 0.000000 0.000000 0.000000 0
380 193 0.000000 0.000000 0.000000 0
382 193 0.000000 0.000000 0.000000 0
384 193 0.000000 0.000000 0.000000 0
386 193 0.000000 0.000000 0.000000 0
388 193 0.000000 0.000000 0.000000 0
390 193 0.000000 0.000000 0.000000 0
392 193 0.000000 0.000000 0.000000 0
394 193 0.000000 0.000000 0.000000 0
396 193 0.000000 0.000000 0.000000 0
398 193 0.000000 0.000000 0.000000 0
400 193 0.000000 0.000000 0.000000 0
402 193 0.000000 0.000000 0.000000 0
404 193 0.000000 0.000000 0.000000 0
406 193 0.000000 0.000000 0.000000 0
408 193 0.000000 0.000000 0.000000 0
410 193 0.000000 0.000000 0.000000 0
412 193 0.000000 0.000000 0.000000 0
414 193 0.000000 0.000000 0.000000 0
416 193 0.000000 0.000000 0.000000 0
418 193 0.000000 0.000000 0.000000 0
420 193 0.000000 0.000000 0.000000 0
422 193 0.000000 0.000000 0.000000 0
424 193 0.000000 0.000000 0.000000 0
426 193 0.000000 0.000000 0.000000 0
428 193 0.000000 0.000000 0.000000 0
430 193 0.000000 0.000000 0.000000 0
432 193 0.000000 0.000000 0.000000 0
434 193 0.000000 0.000000 0.000000 0
436 193 0.000000 0.000000 0.000000 0
438 193 0.000000 0.000000 0.000000 0
440 193 0.000000 0.000000 0.000000 0
442 193 0.000000 0.000000 0.000000 0
444 193 0.000000 0.000000 0.000000 0
446 193 0.000000 0.000000 0.000000 0
308 195 0.000000 0.000000 0.000000 0
310 195 0.000000 0.000000 0.000000 0
312 195 0.000000 0.000000 0.000000 0
314 195 0.000000 0.000000 0.000000 0
316 195 0.000000 0.000000 0.000000 0
318 195 0.000000 0.000000 0.000000 0
320 195 0.000000 0.000000 0.000000 0
322 195 0.000000 0.000000 0.000000 0
324 195 0.000000 0.000000 0.000000 0
326 195 0.000000 0.000000 0.000000 0
328 195 0.000000 0.000000 0.000000 0
330 195 0.000000 0.000000 0.000000 0
332 195 0.000000 0.000000 0.000000 0
334 195 0.000000 0.000000 0.000000 0
336 195 0.000000 0.000000 0.000000 0
338 195 0.000000 0.000000 0.000000 0
340 195 0.000000 0.000000 0.000000 0
342 195 0.000000 0.000000 0.000000 0
344 195 0.000000 0.000000 0.000000 0
346 195 0.000000 0.000000 0.000000 0
348 195 0.000000 0.000000 0.000000 0
350 195 0.000000 0.000000 0.000000 0
352 195 0.000000 0.000000 0.000000 0
354 195 0.000000 0.000000 0.000000 0
356 195 0.000000 0.000000 0.000000 0
358 195 0.000000 0.000000 0.000000 0
360 195 0.000000 0.000000 0.000000 0
362 195 0.000000 0.000000 0.000000 0
364 195 0.000000 0.000000 0.000000 0
366 195 0.000000 0.000000 0.000000 0
368 195 0.000000 0.000000 0.000000 0
370 195 0.000000 0.000000 0.000000 0
372 195 0.000000 0.000000 0.000000 0
374 195 0.000000 0.000000 0.000000 0
376 195 0.000000 0.000000 0.000000 0
378 195 0.000000 0.000000 0.000000 0
380 195 0.000000 0.000000 0.000000 0
382 195 0.000000 0.000000 0.000000 0
384 195 0.000000 0.000000 0.000000 0
386 195 0.000000 0.000000 0.000000 0
388 195 0.000000 0.000000 0.000000 0
390 195 0.000000 0.000000 0.000000 0
392 195 0.000000 0.000000 0.000000 0
394 195 0.000000 0.000000 0.000000 0
396 195 0.000000 0.000000 0.000000 0
398 195 0.000000 0.000000 0.000000 0
400 195 0.000000 0.000000 0.000000 0
402 195 0.000000 0.000000 0.000000 0
404 195 0.000000 0.000000 0.000000 0
406 195 0.000000 0.000000 0.000000 0
408 195 0.000000 0.000000 0.000000 0
410 195 0.000000 0.000000 0.000000 0
412 195 0.000000 0.000000 0.000000 0
414 195 0.000000 0.000000 0.000000 0
416 195 0.000000 0.000000 0.000000 0
418 195 0.000000 0.000000 0.000000 0
420 195 0.000000 0.000000 0.000000 0
422 195 0.000000 0.000000 0.000000 0
424 195 0.000000 0.000000 0.000000 0
426 195 0.000000 0.000000 0.000000 0
428 195 0.000000 0.000000 0.000000 0
430 195 0.000000 0.000000 0.000000 0
432 195 0.000000 0.000000 0.000000 0
434 195 0.000000 0.000000 0.000000 0
436 195 0.000000 0.000000 0.000000 0
438 195 0.000000 0.000000 0.000000 0
440 195 0.000000 0.000000 0.000000 0
442 195 0.000000 0.000000 0.000000 0
444 195 0.000000 0.000000 0.000000 0
446 195 0.000000 0.000000 0.000000 0
308 197 0.000000 0.000000 0.000000 0
310 197 0.000000 0.000000 0.000000 0
312 197 0.000000 0.000000 0.000000 0
314 197 0.000000 0.000000 0.000000 0
316 197 0.000000 0.000000 0.000000 0
318 197 -0.116376 -0.172673 -0.107662 1
320 197 -0.080833 -0.198012 -0.102271 1
322 197 -0.039918 -0.245460 -0.095423 1
324 197 -0.003076 -0.280846 -0.069850 1
326 197 0.035347 -0.304544 -0.061813 1
328 197 0.074168 -0.314213 -0.082484 1
330 197 0.114106 -0.315556 -0.100428 1
332 197 0.163123 -0.314338 -0.114801 1
334 197 0.218190 -0.312396 -0.130179 1
336 197 0.274210 -0.307222 -0.133946 1
338 197 0.327806 -0.299219 -0.123947 1
340 197 0.371815 -0.286417 -0.111326 1
342 197 0.396813 -0.263174 -0.103717 1
344 197 0.406437 -0.230301 -0.104865 1
346 197 0.411782 -0.194768 -0.114842 1
348 197 0.427600 -0.160065 -0.135710 1
350 197 0.454278 -0.127866 -0.158840 1
352 197 0.484314 -0.095498 -0.167721 1
354 197 0.511302 -0.059704 -0.159110 1
356 197 0.532342 -0.023291 -0.140202 1
358 197 0.542149 0.012673 -0.119894 1
360 197 0.542917 0.046069 -0.110713 1
362 197 0.532916 0.080932 -0.122601 1
364 197 0.519417 0.120086 -0.137492 1
366 197 0.509703 0.160955 -0.139943 1
368 197 0.507458 0.202754 -0.128228 1
370 197 0.510795 0.243534 -0.109529 1
372 197 0.507956 0.275967 -0.092094 1
374 197 0.496243 0.300759 -0.079392 1
376 197 0.474576 0.318390 -0.071170 1
378 197 0.444034 0.330152 -0.067664 1
380 197 0.412080 0.340583 -0.068849 1
382 197 0.383930 0.352162 -0.073037 1
384 197 0.360237 0.366395 -0.076469 1
386 197 0.340503 0.382079 -0.073965 1
388 197 0.323359 0.392526 -0.064544 1
390 197 0.306621 0.400127 -0.055396 1
392 197 0.293420 0.407187 -0.054366 1
394 197 0.282425 0.414152 -0.062013 1
396 197 0.269247 0.421349 -0.071945 1
398 197 0.257418 0.430133 -0.083019 1
400 197 0.251245 0.438215 -0.093919 1
402 197 0.248512 0.440372 -0.094633 1
404 197 0.269240 0.431856 -0.050834 1
406 197 0.000000 0.000000 0.000000 0
408 197 0.000000 0.000000 0.000000 0
410 197 0.000000 0.000000 0.000000 0
412 197 0.000000 0.000000 0.000000 0
414 197 0.000000 0.000000 0.000000 0
416 197 0.000000 0.000000 0.000000 0
418 197 0.000000 0.000000 0.000000 0
420 197 0.000000 0.000000 0.000000 0
422 197 0.000000 0.000000 0.000000 0
424 197 0.000000 0.000000 0.000000 0
426 197 0.000000 0.000000 0.000000 0
428 197 0.000000 0.000000 0.000000 0
430 197 0.000000 0.000000 0.000000 0
432 197 0.000000 0.000000 0.000000 0
434 197 0.000000 0.000000 0.000000 0
436 197 0.000000 0.000000 0.000000 0
438 197 0.000000 0.000000 0.000000 0
440 197 0.000000 0.000000 0.000000 0
442 197 0.000000 0.000000 0.000000 0
444 197 0.000000 0.000000 0.000000 0
446 197 0.000000 0.000000 0.000000 0
308 199 0.000000 0.000000 0.000000 0
310 199 0.000000 0.000000 0.000000 0
312 199 0.000000 0.000000 0.000000 0
314 199 0.000000 0.000000 0.000000 0
316 199 -0.172881 -0.128972 -0.096846 1
318 199 -0.145632 -0.171582 -0.097776 1
320 199 -0.103836 -0.241621 -0.115964 1
322 199 -0.062855 -0.295697 -0.123637 1
324 199 -0.027936 -0.339791 -0.107037 1
326 199 0.009849 -0.372555 -0.104387 1
328 199 0.049047 -0.391436 -0.131527 1
330 199 0.090967 -0.396288 -0.157500 1
332 199 0.145557 -0.394412 -0.175917 1
334 199 0.212398 -0.388583 -0.186699 1
336 199 0.281456 -0.378766 -0.181136 1
338 199 0.350437 -0.364840 -0.161197 1
340 199 0.407557 -0.347399 -0.143589 1
342 199 0.447357 -0.319951 -0.133656 1
344 199 0.471705 -0.283454 -0.133644 1
346 199 0.489013 -0.243939 -0.142147 1
348 199 0.509661 -0.202918 -0.160084 1
350 199 0.532659 -0.163682 -0.180515 1
352 199 0.552924 -0.121865 -0.187050 1
354 199 0.572300 -0.077885 -0.178569 1
356 199 0.588761 -0.033432 -0.161655 1
358 199 0.597689 0.008935 -0.142307 1
360 199 0.599477 0.047158 -0.130701 1
362 199 0.591160 0.086187 -0.134838 1
364 199 0.578126 0.128805 -0.141899 1
366 199 0.566949 0.173402 -0.137079 1
368 199 0.561189 0.217730 -0.121600 1
370 199 0.558788 0.260761 -0.101985 1
372 199 0.548450 0.295808 -0.088020 1
374 199 0.529406 0.323785 -0.081247 1
376 199 0.500417 0.345928 -0.080824 1
378 199 0.465298 0.361308 -0.080956 1
380 199 0.430420 0.374870 -0.079428 1
382 199 0.401377 0.388017 -0.075438 1
384 199 0.377563 0.403048 -0.070005 1
386 199 0.357305 0.418751 -0.064206 1
388 199 0.339242 0.428162 -0.054779 1
390 199 0.321872 0.432317 -0.043810 1
392 199 0.309148 0.434443 -0.036799 1
394 199 0.300086 0.434931 -0.034055 1
396 199 0.290273 0.436388 -0.033733 1
398 199 0.282971 0.440041 -0.036569 1
400 199 0.282648 0.443993 -0.043944 1
402 199 0.286310 0.447343 -0.051696 1
404 199 0.293710 0.441457 -0.048993 1
406 199 0.307436 0.430417 -0.034171 1
408 199 0.000000 0.000000 0.000000 0
410 199 0.000000 0.000000 0.000000 0
412 199 0.000000 0.000000 0.000000 0
414 199 0.000000 0.000000 0.000000 0
416 199 0.000000 0.000000 0.000000 0
418 199 0.000000 0.000000 0.000000 0
420 199 0.000000 0.000000 0.000000 0
422 199 0.000000 0.000000 0.000000 0
424 199 0.000000 0.000000 0.000000 0
426 199 0.000000 0.000000 0.000000 0
428 199 0.000000 0.000000 0.000000 0
430 199 0.000000 0.000000 0.000000 0
432 199 0.000000 0.000000 0.000000 0
434 199 0.000000 0.000000 0.000000 0
436 199 0.000000 0.000000 0.000000 0
438 199 0.000000 0.000000 0.000000 0
440 199 0.000000 0.000000 0.000000 0
442 199 0.000000 0.000000 0.000000 0
444 199 0.000000 0.000000 0.000000 0
446 199 0.000000 0.000000 0.000000 0
308 201 0.000000 0.000000 0.000000 0
310 201 0.000000 0.000000 0.000000 0
312 201 0.000000 0.000000 0.000000 0
314 201 0.000000 0.000000 0.000000 0
316 201 -0.177214 -0.154621 -0.047044 1
318 201 -0.155282 -0.211910 -0.056496 1
320 201 -0.107568 -0.288343 -0.111804 1
322 201 -0.061668 -0.346138 -0.149215 1
324 201 -0.023384 -0.394674 -0.137677 1
326 201 0.019662 -0.437755 -0.127735 1
328 201 0.062339 -0.466163 -0.147503 1
330 201 0.103762 -0.476462 -0.172324 1
332 201 0.157426 -0.475963 -0.194280 1
334 201 0.224819 -0.469647 -0.209148 1
336 201 0.297264 -0.456880 -0.207497 1
338 201 0.369500 -0.438015 -0.191672 1
340 201 0.431952 -0.413062 -0.179578 1
342 201 0.479716 -0.379176 -0.173277 1
344 201 0.516082 -0.336852 -0.172905 1
346 201 0.546866 -0.292319 -0.174734 1
348 201 0.576090 -0.245236 -0.181418 1
350 201 0.600108 -0.197492 -0.191520 1
352 201 0.616138 -0.147235 -0.193746 1
354 201 0.630182 -0.093934 -0.186614 1
356 201 0.643550 -0.041919 -0.173897 1
358 201 0.651171 0.007648 -0.159424 1
360 201 0.653745 0.051904 -0.148612 1
362 201 0.647418 0.095003 -0.146540 1
364 201 0.635794 0.141018 -0.143094 1
366 201 0.623830 0.187864 -0.131148 1
368 201 0.614056 0.234124 -0.112489 1
370 201 0.605754 0.279229 -0.093968 1
372 201 0.588089 0.317745 -0.084965 1
374 201 0.561356 0.350510 -0.085675 1
376 201 0.525771 0.377914 -0.092769 1
378 201 0.484767 0.398271 -0.097543 1
380 201 0.447000 0.414449 -0.093626 1
382 201 0.417310 0.428135 -0.079956 1
384 201 0.393997 0.442476 -0.065020 1
386 201 0.373499 0.457078 -0.055567 1
388 201 0.354413 0.465050 -0.046536 1
390 201 0.336184 0.466497 -0.034507 1
392 201 0.323648 0.463100 -0.021431 1
394 201 0.316358 0.457395 -0.010250 1
396 201 0.310722 0.451359 -0.001111 1
398 201 0.308239 0.448188 0.001752 1
400 201 0.312352 0.445939 -0.005111 1
402 201 0.321327 0.446332 -0.020589 1
404 201 0.334953 0.442243 -0.034763 1
406 201 0.349739 0.432346 -0.044438 1
408 201 0.378825 0.419461 -0.045005 1
410 201 0.000000 0.000000 0.000000 0
412 201 0.000000 0.000000 0.000000 0
414 201 0.000000 0.000000 0.000000 0
416 201 0.000000 0.000000 0.000000 0
418 201 0.000000 0.000000 0.000000 0
420 201 0.000000 0.000000 0.000000 0
422 201 0.000000 0.000000 0.000000 0
424 201 0.000000 0.000000 0.000000 0
426 201 0.000000 0.000000 0.000000 0
428 201 0.000000 0.000000 0.000000 0
430 201 0.000000 0.000000 0.000000 0
432 201 0.000000 0.000000 0.000000 0
434 201 0.000000 0.000000 0.000000 0
436 201 0.000000 0.000000 0.000000 0
438 201 0.000000 0.000000 0.000000 0
440 201 0.000000 0.000000 0.000000 0
442 201 0.000000 0.000000 0.000000 0
444 201 0.000000 0.000000 0.000000 0
446 201 0.000000 0.000000 0.000000 0
308 203 0.000000 0.000000 0.000000 0
310 203 0.000000 0.000000 0.000000 0
312 203 0.000000 0.000000 0.000000 0
314 203 0.000000 0.000000 0.000000 0
316 203 -0.133260 -0.184695 0.031762 1
318 203 -0.111375 -0.252914 0.018060 1
320 203 -0.053498 -0.336735 -0.074682 1
322 203 0.003755 -0.396834 -0.150129 1
324 203 0.049843 -0.449175 -0.147218 1
326 203 0.097851 -0.497079 -0.131304 1
328 203 0.142861 -0.530373 -0.141198 1
330 203 0.180032 -0.542044 -0.162413 1
332 203 0.225261 -0.542469 -0.184100 1
334 203 0.283161 -0.537623 -0.202522 1
336 203 0.346380 -0.525629 -0.207668 1
338 203 0.409011 -0.504156 -0.201934 1
340 203 0.464952 -0.473930 -0.200314 1
342 203 0.510474 -0.432186 -0.205120 1
344 203 0.549934 -0.383943 -0.209026 1
346 203 0.587977 -0.334205 -0.206389 1
348 203 0.624647 -0.281929 -0.199397 1
350 203 0.653746 -0.228166 -0.195517 1
352 203 0.671387 -0.170088 -0.189854 1
354 203 0.684599 -0.109974 -0.183340 1
356 203 0.695758 -0.050314 -0.175864 1
358 203 0.701350 0.006101 -0.167460 1
360 203 0.703334 0.057394 -0.161100 1
362 203 0.698352 0.105693 -0.155945 1
364 203 0.687906 0.154878 -0.145289 1
366 203 0.674981 0.203869 -0.127107 1
368 203 0.661647 0.251652 -0.107089 1
370 203 0.647046 0.299465 -0.090241 1
372 203 0.623636 0.342008 -0.083934 1
374 203 0.591381 0.380128 -0.088258 1
376 203 0.550615 0.413343 -0.098984 1
378 203 0.505239 0.437912 -0.105574 1
380 203 0.463633 0.456667 -0.099658 1
382 203 0.432359 0.470030 -0.079943 1
384 203 0.408406 0.481968 -0.056142 1
386 203 0.387113 0.493756 -0.041048 1
388 203 0.366774 0.499011 -0.029119 1
390 203 0.346923 0.497075 -0.014278 1
392 203 0.333331 0.489487 0.002132 1
394 203 0.326847 0.477054 0.018140 1
396 203 0.324754 0.464424 0.029695 1
398 203 0.328008 0.453142 0.033493 1
400 203 0.336896 0.442099 0.026724 1
402 203 0.350712 0.432608 0.010988 1
404 203 0.371810 0.421503 -0.009989 1
406 203 0.394931 0.407890 -0.026852 1
408 203 0.404013 0.398626 -0.026876 1
410 203 0.000000 0.000000 0.000000 0
412 203 0.000000 0.000000 0.000000 0
414 203 0.000000 0.000000 0.000000 0
416 203 0.000000 0.000000 0.000000 0
418 203 0.000000 0.000000 0.000000 0
420 203 0.000000 0.000000 0.000000 0
422 203 0.000000 0.000000 0.000000 0
424 203 0.000000 0.000000 0.000000 0
426 203 0.000000 0.000000 0.000000 0
428 203 0.000000 0.000000 0.000000 0
430 203 0.000000 0.000000 0.000000 0
432 203 0.000000 0.000000 0.000000 0
434 203 0.000000 0.000000 0.000000 0
436 203 0.000000 0.000000 0.000000 0
438 203 0.000000 0.000000 0.000000 0
440 203 0.000000 0.000000 0.000000 0
442 203 0.000000 0.000000 0.000000 0
444 203 0.000000 0.000000 0.000000 0
446 203 0.000000 0.000000 0.000000 0
308 205 0.000000 0.000000 0.000000 0
310 205 0.000000 0.000000 0.000000 0
312 205 0.000000 0.000000 0.000000 0
314 205 0.000000 0.000000 0.000000 0
316 205 -0.003650 -0.203007 0.095060 1
318 205 0.022957 -0.290138 0.102267 1
320 205 0.098490 -0.385392 -0.009119 1
322 205 0.173175 -0.450488 -0.115264 1
324 205 0.226309 -0.507316 -0.123200 1
326 205 0.272538 -0.554284 -0.110656 1
328 205 0.312381 -0.582954 -0.120834 1
330 205 0.339587 -0.590177 -0.140786 1
332 205 0.373286 -0.589193 -0.161752 1
334 205 0.414207 -0.585262 -0.183391 1
336 205 0.458401 -0.575359 -0.194934 1
338 205 0.501606 -0.555145 -0.197168 1
340 205 0.539288 -0.523993 -0.204930 1
342 205 0.573032 -0.479495 -0.218352 1
344 205 0.603505 -0.427494 -0.229954 1
346 205 0.637724 -0.374303 -0.228785 1
348 205 0.673948 -0.318083 -0.215373 1
350 205 0.707139 -0.259622 -0.200314 1
352 205 0.729255 -0.196263 -0.186904 1
354 205 0.744122 -0.129382 -0.179043 1
356 205 0.753657 -0.063196 -0.174501 1
358 205 0.755519 0.001844 -0.171843 1
360 205 0.755307 0.060881 -0.169988 1
362 205 0.749918 0.116209 -0.164575 1
364 205 0.739387 0.170285 -0.150405 1
366 205 0.724741 0.222579 -0.130318 1
368 205 0.706717 0.273974 -0.110631 1
370 205 0.686734 0.325558 -0.094053 1
372 205 0.658683 0.373563 -0.084761 1
374 205 0.624065 0.416754 -0.084487 1
376 205 0.581789 0.454215 -0.088866 1
378 205 0.533751 0.481229 -0.091017 1
380 205 0.488080 0.500732 -0.083832 1
382 205 0.451218 0.512686 -0.064466 1
384 205 0.423335 0.521672 -0.039206 1
386 205 0.399129 0.528818 -0.020006 1
388 205 0.377138 0.529667 -0.002850 1
390 205 0.355205 0.523129 0.016839 1
392 205 0.339296 0.510202 0.035875 1
394 205 0.331733 0.492083 0.052303 1
396 205 0.331649 0.472233 0.062979 1
398 205 0.339385 0.453949 0.066485 1
400 205 0.354683 0.432343 0.063756 1
402 205 0.375789 0.409706 0.054516 1
404 205 0.405664 0.384971 0.040762 1
406 205 0.437750 0.359530 0.030791 1
408 205 0.449861 0.350403 0.030747 1
410 205 0.000000 0.000000 0.000000 0
412 205 0.000000 0.000000 0.000000 0
414 205 0.000000 0.000000 0.000000 0
416 205 0.000000 0.000000 0.000000 0
418 205 0.000000 0.000000 0.000000 0
420 205 0.000000 0.000000 0.000000 0
422 205 0.000000 0.000000 0.000000 0
424 205 0.000000 0.000000 0.000000 0
426 205 0.000000 0.000000 0.000000 0
428 205 0.000000 0.000000 0.000000 0
430 205 0.000000 0.000000 0.000000 0
432 205 0.000000 0.000000 0.000000 0
434 205 0.000000 0.000000 0.000000 0
436 205 0.000000 0.000000 0.000000 0
438 205 0.000000 0.000000 0.000000 0
440 205 0.000000 0.000000 0.000000 0
442 205 0.000000 0.000000 0.000000 0
444 205 0.000000 0.000000 0.000000 0
446 205 0.000000 0.000000 0.000000 0
308 207 0.000000 0.000000 0.000000 0
310 207 0.000000 0.000000 0.000000 0
312 207 0.000000 0.000000 0.000000 0
314 207 0.000000 0.000000 0.000000 0
316 207 0.196394 -0.218623 0.128757 1
318 207 0.227838 -0.325202 0.171039 1
320 207 0.323861 -0.430960 0.070470 1
322 207 0.419253 -0.503432 -0.044360 1
324 207 0.477107 -0.563612 -0.062236 1
326 207 0.517187 -0.606387 -0.060795 1
328 207 0.546520 -0.625717 -0.079665 1
330 207 0.564500 -0.627613 -0.103658 1
332 207 0.585533 -0.623259 -0.130131 1
334 207 0.609623 -0.618044 -0.161016 1
336 207 0.629732 -0.608379 -0.183928 1
338 207 0.647796 -0.590054 -0.194802 1
340 207 0.662837 -0.561542 -0.206632 1
342 207 0.676772 -0.518767 -0.223390 1
344 207 0.693677 -0.467034 -0.238717 1
346 207 0.715532 -0.412587 -0.242231 1
348 207 0.744967 -0.354216 -0.229662 1
350 207 0.775926 -0.292676 -0.210865 1
352 207 0.799557 -0.225486 -0.192006 1
354 207 0.815090 -0.153726 -0.181320 1
356 207 0.822632 -0.080155 -0.177422 1
358 207 0.820916 -0.007211 -0.177164 1
360 207 0.817139 0.061532 -0.177773 1
362 207 0.810518 0.124855 -0.171508 1
364 207 0.799088 0.185989 -0.155705 1
366 207 0.782132 0.244008 -0.136130 1
368 207 0.760157 0.300640 -0.118081 1
370 207 0.734177 0.358331 -0.101232 1
372 207 0.702486 0.411505 -0.086650 1
374 207 0.666441 0.459622 -0.075730 1
376 207 0.624114 0.499592 -0.068266 1
378 207 0.574614 0.527247 -0.060969 1
380 207 0.523706 0.546225 -0.051487 1
382 207 0.479323 0.556500 -0.035910 1
384 207 0.442776 0.561902 -0.016711 1
386 207 0.414217 0.564557 0.000870 1
388 207 0.390185 0.559683 0.020939 1
390 207 0.367002 0.547688 0.045779 1
392 207 0.349744 0.528994 0.069322 1
394 207 0.341340 0.504586 0.088486 1
396 207 0.342143 0.479468 0.101462 1
398 207 0.353462 0.454276 0.108893 1
400 207 0.374021 0.424272 0.113682 1
402 207 0.402832 0.388537 0.116002 1
404 207 0.440953 0.349759 0.113348 1
406 207 0.479676 0.313716 0.110446 1
408 207 0.495796 0.302719 0.111657 1
410 207 0.000000 0.000000 0.000000 0
412 207 0.000000 0.000000 0.000000 0
414 207 0.000000 0.000000 0.000000 0
416 207 0.000000 0.000000 0.000000 0
418 207 0.000000 0.000000 0.000000 0
420 207 0.000000 0.000000 0.000000 0
422 207 0.000000 0.000000 0.000000 0
424 207 0.000000 0.000000 0.000000 0
426 207 0.000000 0.000000 0.000000 0
428 207 0.000000 0.000000 0.000000 0
430 207 0.000000 0.000000 0.000000 0
432 207 0.000000 0.000000 0.000000 0
434 207 0.000000 0.000000 0.000000 0
436 207 0.000000 0.000000 0.000000 0
438 207 0.000000 0.000000 0.000000 0
440 207 0.000000 0.000000 0.000000 0
442 207 0.000000 0.000000 0.000000 0
444 207 0.000000 0.000000 0.000000 0
446 207 0.000000 0.000000 0.000000 0
308 209 0.000000 0.000000 0.000000 0
310 209 0.000000 0.000000 0.000000 0
312 209 0.000000 0.000000 0.000000 0
314 209 0.000000 0.000000 0.000000 0
316 209 0.495323 -0.245885 0.145208 1
318 209 0.539460 -0.361237 0.213704 1
320 209 0.650302 -0.475433 0.149282 1
322 209 0.752066 -0.549745 0.048288 1
324 209 0.806198 -0.606689 0.025319 1
326 209 0.837258 -0.641682 0.015047 1
328 209 0.856830 -0.653821 -0.011592 1
330 209 0.866006 -0.651787 -0.044364 1
332 209 0.877607 -0.643718 -0.083773 1
334 209 0.882392 -0.633346 -0.134307 1
336 209 0.879054 -0.620412 -0.173241 1
338 209 0.869262 -0.601159 -0.195784 1
340 209 0.858922 -0.575285 -0.209099 1
342 209 0.851495 -0.536400 -0.223253 1
344 209 0.848632 -0.488132 -0.238141 1
346 209 0.854931 -0.435287 -0.244957 1
348 209 0.867868 -0.377346 -0.238495 1
350 209 0.886259 -0.315616 -0.222406 1
352 209 0.898612 -0.248056 -0.202344 1
354 209 0.905783 -0.174333 -0.188530 1
356 209 0.907214 -0.096470 -0.182787 1
358 209 0.900148 -0.015837 -0.181612 1
360 209 0.893470 0.060951 -0.180365 1
362 209 0.885641 0.133750 -0.170531 1
364 209 0.872795 0.202682 -0.154231 1
366 209 0.852978 0.268283 -0.137246 1
368 209 0.826840 0.332352 -0.121632 1
370 209 0.796225 0.396584 -0.104372 1
372 209 0.760939 0.455404 -0.083173 1
374 209 0.723934 0.506598 -0.062360 1
376 209 0.681629 0.547808 -0.041922 1
378 209 0.630981 0.575128 -0.025091 1
380 209 0.575761 0.593076 -0.011086 1
382 209 0.523949 0.600926 0.003488 1
384 209 0.480122 0.602875 0.018557 1
386 209 0.447166 0.599945 0.032835 1
388 209 0.422506 0.589664 0.053241 1
390 209 0.400147 0.571439 0.083212 1
392 209 0.384012 0.546892 0.113830 1
394 209 0.377184 0.517058 0.139772 1
396 209 0.380389 0.487375 0.159190 1
398 209 0.394410 0.458024 0.173056 1
400 209 0.419159 0.420835 0.188898 1
402 209 0.451899 0.376243 0.201946 1
404 209 0.493230 0.326929 0.207916 1
406 209 0.533663 0.284019 0.206418 1
408 209 0.551597 0.270974 0.206277 1
410 209 0.000000 0.000000 0.000000 0
412 209 0.000000 0.000000 0.000000 0
414 209 0.000000 0.000000 0.000000 0
416 209 0.000000 0.000000 0.000000 0
418 209 0.000000 0.000000 0.000000 0
420 209 0.000000 0.000000 0.000000 0
422 209 0.000000 0.000000 0.000000 0
424 209 0.000000 0.000000 0.000000 0
426 209 0.000000 0.000000 0.000000 0
428 209 0.000000 0.000000 0.000000 0
430 209 0.000000 0.000000 0.000000 0
432 209 0.000000 0.000000 0.000000 0
434 209 0.000000 0.000000 0.000000 0
436 209 0.000000 0.000000 0.000000 0
438 209 0.000000 0.000000 0.000000 0
440 209 0.000000 0.000000 0.000000 0
442 209 0.000000 0.000000 0.000000 0
444 209 0.000000 0.000000 0.000000 0
446 209 0.000000 0.000000 0.000000 0
308 211 0.000000 0.000000 0.000000 0
310 211 0.000000 0.000000 0.000000 0
312 211 0.000000 0.000000 0.000000 0
314 211 0.000000 0.000000 0.000000 0
316 211 0.857911 -0.297444 0.173131 1
318 211 0.913825 -0.412479 0.247879 1
320 211 1.018550 -0.524498 0.208641 1
322 211 1.106574 -0.593627 0.130326 1
324 211 1.151199 -0.643121 0.104830 1
326 211 1.177048 -0.670071 0.090648 1
328 211 1.192969 -0.677662 0.064971 1
330 211 1.199346 -0.672555 0.028667 1
332 211 1.204298 -0.658700 -0.023618 1
334 211 1.197610 -0.640965 -0.088864 1
336 211 1.173329 -0.619932 -0.148023 1
338 211 1.141587 -0.595841 -0.188066 1
340 211 1.107733 -0.568579 -0.213002 1
342 211 1.079248 -0.532199 -0.228833 1
344 211 1.058177 -0.487563 -0.242289 1
346 211 1.044978 -0.438263 -0.249659 1
348 211 1.039616 -0.382857 -0.247758 1
350 211 1.033878 -0.323944 -0.237785 1
352 211 1.024539 -0.259117 -0.219062 1
354 211 1.011275 -0.187696 -0.202650 1
356 211 0.998801 -0.109195 -0.193196 1
358 211 0.983811 -0.024704 -0.188486 1
360 211 0.973781 0.059834 -0.182288 1
362 211 0.965996 0.140735 -0.167989 1
364 211 0.952629 0.218999 -0.150393 1
366 211 0.930587 0.292568 -0.135337 1
368 211 0.900996 0.364706 -0.121408 1
370 211 0.865993 0.436151 -0.103954 1
372 211 0.827564 0.499301 -0.079484 1
374 211 0.788986 0.553204 -0.051408 1
376 211 0.746826 0.595264 -0.023293 1
378 211 0.697138 0.622684 0.002657 1
380 211 0.641613 0.640018 0.024060 1
382 211 0.588797 0.645549 0.046134 1
384 211 0.542543 0.643518 0.066027 1
386 211 0.509295 0.635805 0.083289 1
388 211 0.485898 0.619415 0.105028 1
390 211 0.465704 0.596250 0.137671 1
392 211 0.451636 0.566212 0.174590 1
394 211 0.446318 0.531390 0.207708 1
396 211 0.451152 0.497502 0.233813 1
398 211 0.467935 0.464278 0.255209 1
400 211 0.495518 0.423082 0.278996 1
402 211 0.530421 0.372034 0.301521 1
404 211 0.571053 0.316538 0.312145 1
406 211 0.610262 0.268086 0.309421 1
408 211 0.632187 0.253028 0.305074 1
410 211 0.000000 0.000000 0.000000 0
412 211 0.000000 0.000000 0.000000 0
414 211 0.000000 0.000000 0.000000 0
416 211 0.000000 0.000000 0.000000 0
418 211 0.000000 0.000000 0.000000 0
420 211 0.000000 0.000000 0.000000 0
422 211 0.000000 0.000000 0.000000 0
424 211 0.000000 0.000000 0.000000 0
426 211 0.000000 0.000000 0.000000 0
428 211 0.000000 0.000000 0.000000 0
430 211 0.000000 0.000000 0.000000 0
432 211 0.000000 0.000000 0.000000 0
434 211 0.000000 0.000000 0.000000 0
436 211 0.000000 0.000000 0.000000 0
438 211 0.000000 0.000000 0.000000 0
440 211 0.000000 0.000000 0.000000 0
442 211 0.000000 0.000000 0.000000 0
444 211 0.000000 0.000000 0.000000 0
446 211 0.000000 0.000000 0.000000 0
308 213 0.000000 0.000000 0.000000 0
310 213 0.000000 0.000000 0.000000 0
312 213 0.000000 0.000000 0.000000 0
314 213 0.000000 0.000000 0.000000 0
316 213 1.245932 -0.362295 0.202640 1
318 213 1.300795 -0.468377 0.265146 1
320 213 1.382922 -0.569788 0.239406 1
322 213 1.446628 -0.630755 0.174238 1
324 213 1.480940 -0.670039 0.145827 1
326 213 1.509997 -0.691085 0.135263 1
328 213 1.532255 -0.695732 0.120458 1
330 213 1.542282 -0.686926 0.088676 1
332 213 1.546065 -0.665635 0.037119 1
334 213 1.533117 -0.636555 -0.024904 1
336 213 1.500281 -0.605040 -0.086712 1
338 213 1.454172 -0.570277 -0.142748 1
340 213 1.406002 -0.537676 -0.188008 1
342 213 1.361741 -0.500322 -0.221178 1
344 213 1.325188 -0.458517 -0.240578 1
346 213 1.295964 -0.413172 -0.248764 1
348 213 1.268747 -0.362798 -0.250788 1
350 213 1.238712 -0.308677 -0.247050 1
352 213 1.196536 -0.250263 -0.234968 1
354 213 1.154619 -0.184482 -0.221047 1