TITLE = "B00018"
VARIABLES = "X", "Y", "Vx", "Vy", "Vz", "flag"
ZONE T="B00018", I=70, J=78
308 191 0.000000 0.000000 0.000000 0
310 191 0.000000 0.000000 0.000000 0
312 191 0.000000 0.000000 0.000000 0
314 191 0.000000 0.000000 0.000000 0
316 191 0.000000 0.000000 0.000000 0
318 191 0.000000 0.000000 0.000000 0
320 191 0.000000 0.000000 0.000000 0
322 191 0.000000 0.000000 0.000000 0
324 191 0.000000 0.000000 0.000000 0
326 191 0.000000 0.000000 0.000000 0
328 191 0.000000 0.000000 0.000000 0
330 191 0.000000 0.000000 0.000000 0
332 191 0.000000 0.000000 0.000000 0
334 191 0.000000 0.000000 0.000000 0
336 191 0.000000 0.000000 0.000000 0
338 191 0.000000 0.000000 0.000000 0
340 191 0.000000 0.000000 0.000000 0
342 191 0.000000 0.000000 0.000000 0
344 191 0.000000 0.000000 0.000000 0
346 191 0.000000 0.000000 0.000000 0
348 191 0.000000 0.000000 0.000000 0
350 191 0.000000 0.000000 0.000000 0
352 191 0.000000 0.000000 0.000000 0
354 191 0.000000 0.000000 0.000000 0
356 191 0.000000 0.000000 0.000000 0
358 191 0.000000 0.000000 0.000000 0
360 191 0.000000 0.000000 0.000000 0
362 191 0.000000 0.000000 0.000000 0
364 191 0.000000 0.000000 0.000000 0
366 191 0.000000 0.000000 0.000000 0
368 191 0.000000 0.000000 0.000000 0
370 191 0.000000 0.000000 0.000000 0
372 191 0.000000 0.000000 0.000000 0
374 191 0.000000 0.000000 0.000000 0
376 191 0.000000 0.000000 0.000000 0
378 191 0.000000 0.000000 0.000000 0
380 191 0.000000 0.000000 0.000000 0
382 191 0.000000 0.000000 0.000000 0
384 191 0.000000 0.000000 0.000000 0
386 191 0.000000 0.000000 0.000000 0
388 191 0.000000 0.000000 0.000000 0
390 191 0.000000 0.000000 0.000000 0
392 191 0.000000 0.000000 0.000000 0
394 191 0.000000 0.000000 0.000000 0
396 191 0.000000 0.000000 0.000000 0
398 191 0.000000 0.000000 0.000000 0
400 191 0.000000 0.000000 0.000000 0
402 191 0.000000 0.000000 0.000000 0
404 191 0.000000 0.000000 0.000000 0
406 191 0.000000 0.000000 0.000000 0
408 191 0.000000 0.000000 0.000000 0
410 191 0.000000 0.000000 0.000000 0
412 191 0.000000 0.000000 0.000000 0
414 191 0.000000 0.000000 0.000000 0
416 191 0.000000 0.000000 0.000000 0
418 191 0.000000 0.000000 0.000000 0
420 191 0.000000 0.000000 0.000000 0
422 191 0.000000 0.000000 0.000000 0
424 191 0.000000 0.000000 0.000000 0
426 191 0.000000 0.000000 0.000000 0
428 191 0.000000 0.000000 0.000000 0
430 191 0.000000 0.000000 0.000000 0
432 191 0.000000 0.000000 0.000000 0
434 191 0.000000 0.000000 0.000000 0
436 191 0.000000 0.000000 0.000000 0
438 191 0.000000 0.000000 0.000000 0
440 191 0.000000 0.000000 0.000000 0
442 191 0.000000 0.000000 0.000000 0
444 191 0.000000 0.000000 0.000000 0
446 191 0.000000 0.000000 0.000000 0
308 193 0.000000 0.000000 0.000000 0
310 193 0.000000 0.000000 0.000000 0
312 193 0.000000 0.000000 0.000000 0
314 193 0.000000 0.000000 0.000000 0
316 193 0.000000 0.000000 0.000000 0
318 193 0.000000 0.000000 0.000000 0
320 193 0.000000 0.000000 0.000000 0
322 193 0.000000 0.000000 0.000000 0
324 193 0.000000 0.000000 0.000000 0
326 193 0.000000 0.000000 0.000000 0
328 193 0.000000 0.000000 0.000000 0
330 193 0.000000 0.000000 0.000000 0
332 193 0.000000 0.000000 0.000000 0
334 193 0.000000 0.000000 0.000000 0
336 193 0.000000 0.000000 0.000000 0
338 193 0.000000 0.000000 0.000000 0
340 193 0.000000 0.000000 0.000000 0
342 193 0.000000 0.000000 0.000000 0
344 193 0.000000 0.000000 0.000000 0
346 193 0.000000 0.000000 0.000000 0
348 193 0.000000 0.000000 0.000000 0
350 193 0.000000 0.000000 0.000000 0
352 193 0.000000 0.000000 0.000000 0
354 193 0.000000 0.000000 0.000000 0
356 193 0.000000 0.000000 0.000000 0
358 193 0.000000 0.000000 0.000000 0
360 193 0.000000 0.000000 0.000000 0
362 193 0.000000 0.000000 0.000000 0
364 193 0.000000 0.000000 0.000000 0
366 193 0.000000 0.000000 0.000000 0
368 193 0.000000 0.000000 0.000000 0
370 193 0.000000 0.000000 0.000000 0
372 193 0.000000 0.000000 0.000000 0
374 193 0.000000 0.000000 0.000000 0
376 193 0.000000 0.000000 0.000000 0
378 193 0.000000 0.000000 0.000000 0
380 193 0.000000 0.000000 0.000000 0
382 193 0.000000 0.000000 0.000000 0
384 193 0.000000 0.000000 0.000000 0
386 193 0.000000 0.000000 0.000000 0
388 193 0.000000 0.000000 0.000000 0
390 193 0.000000 0.000000 0.000000 0
392 193 0.000000 0.000000 0.000000 0
394 193 0.000000 0.000000 0.000000 0
396 193 0.000000 0.000000 0.000000 0
398 193 0.000000 0.000000 0.000000 0
400 193 0.000000 0.000000 0.000000 0
402 193 0.000000 0.000000 0.000000 0
404 193 0.000000 0.000000 0.000000 0
406 193 0.000000 0.000000 0.000000 0
408 193 0.000000 0.000000 0.000000 0
410 193 0.000000 0.000000 0.000000 0
412 193 0.000000 0.000000 0.000000 0
414 193 0.000000 0.000000 0.000000 0
416 193 0.000000 0.000000 0.000000 0
418 193 0.000000 0.000000 0.000000 0
420 193 0.000000 0.000000 0.000000 0
422 193 0.000000 0.000000 0.000000 0
424 193 0.000000 0.000000 0.000000 0
426 193 0.000000 0.000000 0.000000 0
428 193 0.000000 0.000000 0.000000 0
430 193 0.000000 0.000000 0.000000 0
432 193 0.000000 0.000000 0.000000 0
434 193 0.000000 0.000000 0.000000 0
436 193 0.000000 0.000000 0.000000 0
438 193 0.000000 0.000000 0.000000 0
440 193 0.000000 0.000000 0.000000 0
442 193 0.000000 0.000000 0.000000 0
444 193 0.000000 0.000000 0.000000 0
446 193 0.000000 0.000000 0.000000 0
308 195 0.000000 0.000000 0.000000 0
310 195 0.000000 0.000000 0.000000 0
312 195 0.000000 0.000000 0.000000 0
314 195 0.000000 0.000000 0.000000 0
316 195 0.000000 0.000000 0.000000 0
318 195 0.000000 0.000000 0.000000 0
320 195 0.000000 0.000000 0.000000 0
322 195 0.000000 0.000000 0.000000 0
324 195 0.000000 0.000000 0.000000 0
326 195 0.000000 0.000000 0.000000 0
328 195 0.000000 0.000000 0.000000 0
330 195 0.000000 0.000000 0.000000 0
332 195 0.000000 0.000000 0.000000 0
334 195 0.000000 0.000000 0.000000 0
336 195 0.000000 0.000000 0.000000 0
338 195 0.000000 0.000000 0.000000 0
340 195 0.000000 0.000000 0.000000 0
342 195 0.000000 0.000000 0.000000 0
344 195 0.000000 0.000000 0.000000 0
346 195 0.000000 0.000000 0.000000 0
348 195 0.000000 0.000000 0.000000 0
350 195 0.000000 0.000000 0.000000 0
352 195 0.000000 0.000000 0.000000 0
354 195 0.000000 0.000000 0.000000 0
356 195 0.000000 0.000000 0.000000 0
358 195 0.000000 0.000000 0.000000 0
360 195 0.000000 0.000000 0.000000 0
362 195 0.000000 0.000000 0.000000 0
364 195 0.000000 0.000000 0.000000 0
366 195 0.000000 0.000000 0.000000 0
368 195 0.000000 0.000000 0.000000 0
370 195 0.000000 0.000000 0.000000 0
372 195 0.000000 0.000000 0.000000 0
374 195 0.000000 0.000000 0.000000 0
376 195 0.000000 0.000000 0.000000 0
378 195 0.000000 0.000000 0.000000 0
380 195 0.000000 0.000000 0.000000 0
382 195 0.000000 0.000000 0.000000 0
384 195 0.000000 0.000000 0.000000 0
386 195 0.000000 0.000000 0.000000 0
388 195 0.000000 0.000000 0.000000 0
390 195 0.000000 0.000000 0.000000 0
392 195 0.000000 0.000000 0.000000 0
394 195 0.000000 0.000000 0.000000 0
396 195 0.000000 0.000000 0.000000 0
398 195 0.000000 0.000000 0.000000 0
400 195 0.000000 0.000000 0.000000 0
402 195 0.000000 0.000000 0.000000 0
404 195 0.000000 0.000000 0.000000 0
406 195 0.000000 0.000000 0.000000 0
408 195 0.000000 0.000000 0.000000 0
410 195 0.000000 0.000000 0.000000 0
412 195 0.000000 0.000000 0.000000 0
414 195 0.000000 0.000000 0.000000 0
416 195 0.000000 0.000000 0.000000 0
418 195 0.000000 0.000000 0.000000 0
420 195 0.000000 0.000000 0.000000 0
422 195 0.000000 0.000000 0.000000 0
424 195 0.000000 0.000000 0.000000 0
426 195 0.000000 0.000000 0.000000 0
428 195 0.000000 0.000000 0.000000 0
430 195 0.000000 0.000000 0.000000 0
432 195 0.000000 0.000000 0.000000 0
434 195 0.000000 0.000000 0.000000 0
436 195 0.000000 0.000000 0.000000 0
438 195 0.000000 0.000000 0.000000 0
440 195 0.000000 0.000000 0.000000 0
442 195 0.000000 0.000000 0.000000 0
444 195 0.000000 0.000000 0.000000 0
446 195 0.000000 0.000000 0.000000 0
308 197 0.000000 0.000000 0.000000 0
310 197 0.000000 0.000000 0.000000 0
312 197 0.000000 0.000000 0.000000 0
314 197 0.000000 0.000000 0.000000 0
316 197 0.000000 0.000000 0.000000 0
318 197 -0.133048 0.291261 -0.015532 1
320 197 -0.149601 0.247264 -0.032322 1
322 197 -0.200766 0.205226 -0.021914 1
324 197 -0.255657 0.163316 -0.015645 1
326 197 -0.291037 0.113511 -0.024727 1
328 197 -0.308399 0.052370 -0.046749 1
330 197 -0.311995 -0.014935 -0.073151 1
332 197 -0.298064 -0.084870 -0.098518 1
334 197 -0.271740 -0.153653 -0.113545 1
336 197 -0.242278 -0.214441 -0.118184 1
338 197 -0.210574 -0.273604 -0.113464 1
340 197 -0.177444 -0.338181 -0.116919 1
342 197 -0.140493 -0.395817 -0.144700 1
344 197 -0.095279 -0.445271 -0.181518 1
346 197 -0.043158 -0.483844 -0.188258 1
348 197 0.017752 -0.509787 -0.158920 1
350 197 0.083864 -0.529884 -0.132222 1
352 197 0.151465 -0.540349 -0.121511 1
354 197 0.221219 -0.540157 -0.119751 1
356 197 0.287559 -0.527587 -0.116311 1
358 197 0.343882 -0.500456 -0.110731 1
360 197 0.394267 -0.469308 -0.115149 1
362 197 0.445021 -0.432582 -0.135352 1
364 197 0.496958 -0.390971 -0.159179 1
366 197 0.546358 -0.349607 -0.171366 1
368 197 0.588420 -0.306761 -0.163795 1
370 197 0.622427 -0.263055 -0.151542 1
372 197 0.643718 -0.215685 -0.145804 1
374 197 0.656243 -0.165330 -0.150076 1
376 197 0.663277 -0.112070 -0.157886 1
378 197 0.671687 -0.060138 -0.160927 1
380 197 0.686933 -0.014604 -0.162703 1
382 197 0.698866 0.028764 -0.163902 1
384 197 0.700717 0.073226 -0.163714 1
386 197 0.692593 0.118742 -0.161150 1
388 197 0.682774 0.163599 -0.154131 1
390 197 0.677437 0.207306 -0.138623 1
392 197 0.672903 0.249451 -0.122505 1
394 197 0.663596 0.291995 -0.116307 1
396 197 0.647121 0.335062 -0.122298 1
398 197 0.623134 0.375822 -0.137358 1
400 197 0.589690 0.419948 -0.150170 1
402 197 0.555980 0.464451 -0.143729 1
404 197 0.584895 0.499706 -0.131503 1
406 197 0.000000 0.000000 0.000000 0
408 197 0.000000 0.000000 0.000000 0
410 197 0.000000 0.000000 0.000000 0
412 197 0.000000 0.000000 0.000000 0
414 197 0.000000 0.000000 0.000000 0
416 197 0.000000 0.000000 0.000000 0
418 197 0.000000 0.000000 0.000000 0
420 197 0.000000 0.000000 0.000000 0
422 197 0.000000 0.000000 0.000000 0
424 197 0.000000 0.000000 0.000000 0
426 197 0.000000 0.000000 0.000000 0
428 197 0.000000 0.000000 0.000000 0
430 197 0.000000 0.000000 0.000000 0
432 197 0.000000 0.000000 0.000000 0
434 197 0.000000 0.000000 0.000000 0
436 197 0.000000 0.000000 0.000000 0
438 197 0.000000 0.000000 0.000000 0
440 197 0.000000 0.000000 0.000000 0
442 197 0.000000 0.000000 0.000000 0
444 197 0.000000 0.000000 0.000000 0
446 197 0.000000 0.000000 0.000000 0
308 199 0.000000 0.000000 0.000000 0
310 199 0.000000 0.000000 0.000000 0
312 199 0.000000 0.000000 0.000000 0
314 199 0.000000 0.000000 0.000000 0
316 199 -0.103286 0.372993 0.010950 1
318 199 -0.132433 0.346901 0.019773 1
320 199 -0.188179 0.312759 0.019391 1
322 199 -0.235981 0.261883 0.018616 1
324 199 -0.281518 0.206005 0.014741 1
326 199 -0.310418 0.142296 0.003172 1
328 199 -0.322412 0.065014 -0.015465 1
330 199 -0.317633 -0.018962 -0.033527 1
332 199 -0.290786 -0.107935 -0.049154 1
334 199 -0.246944 -0.199475 -0.058447 1
336 199 -0.205193 -0.277891 -0.069062 1
338 199 -0.165290 -0.351643 -0.080342 1
340 199 -0.128295 -0.424822 -0.094512 1
342 199 -0.086645 -0.490220 -0.126443 1
344 199 -0.036039 -0.545576 -0.169004 1
346 199 0.020550 -0.587861 -0.193578 1
348 199 0.083275 -0.613937 -0.196994 1
350 199 0.149787 -0.632017 -0.194481 1
352 199 0.216586 -0.639000 -0.195130 1
354 199 0.285791 -0.635861 -0.191510 1
356 199 0.353349 -0.619609 -0.185121 1
358 199 0.411540 -0.587021 -0.183206 1
360 199 0.463630 -0.549193 -0.194357 1
362 199 0.514459 -0.503710 -0.218260 1
364 199 0.565105 -0.454112 -0.237700 1
366 199 0.612517 -0.403279 -0.236120 1
368 199 0.653386 -0.352151 -0.214623 1
370 199 0.687542 -0.300509 -0.191213 1
372 199 0.712412 -0.246895 -0.179614 1
374 199 0.730978 -0.191916 -0.180771 1
376 199 0.745040 -0.133733 -0.187323 1
378 199 0.755302 -0.076557 -0.189537 1
380 199 0.766936 -0.024015 -0.188420 1
382 199 0.774088 0.025800 -0.186519 1
384 199 0.772827 0.076182 -0.184558 1
386 199 0.764053 0.126632 -0.182604 1
388 199 0.754067 0.174967 -0.174629 1
390 199 0.747299 0.221266 -0.153084 1
392 199 0.739745 0.264971 -0.128737 1
394 199 0.725597 0.309929 -0.114688 1
396 199 0.705564 0.356953 -0.118724 1
398 199 0.681403 0.402244 -0.134829 1
400 199 0.653999 0.449367 -0.148711 1
402 199 0.628958 0.494513 -0.142385 1
404 199 0.606690 0.532266 -0.109599 1
406 199 0.635314 0.560323 -0.086508 1
408 199 0.000000 0.000000 0.000000 0
410 199 0.000000 0.000000 0.000000 0
412 199 0.000000 0.000000 0.000000 0
414 199 0.000000 0.000000 0.000000 0
416 199 0.000000 0.000000 0.000000 0
418 199 0.000000 0.000000 0.000000 0
420 199 0.000000 0.000000 0.000000 0
422 199 0.000000 0.000000 0.000000 0
424 199 0.000000 0.000000 0.000000 0
426 199 0.000000 0.000000 0.000000 0
428 199 0.000000 0.000000 0.000000 0
430 199 0.000000 0.000000 0.000000 0
432 199 0.000000 0.000000 0.000000 0
434 199 0.000000 0.000000 0.000000 0
436 199 0.000000 0.000000 0.000000 0
438 199 0.000000 0.000000 0.000000 0
440 199 0.000000 0.000000 0.000000 0
442 199 0.000000 0.000000 0.000000 0
444 199 0.000000 0.000000 0.000000 0
446 199 0.000000 0.000000 0.000000 0
308 201 0.000000 0.000000 0.000000 0
310 201 0.000000 0.000000 0.000000 0
312 201 0.000000 0.000000 0.000000 0
314 201 0.000000 0.000000 0.000000 0
316 201 -0.098049 0.428715 0.036475 1
318 201 -0.131873 0.420009 0.065924 1
320 201 -0.191890 0.376058 0.058616 1
322 201 -0.233276 0.313261 0.046780 1
324 201 -0.267476 0.243426 0.035828 1
326 201 -0.286055 0.162284 0.025675 1
328 201 -0.291112 0.070535 0.015056 1
330 201 -0.273497 -0.029292 0.013858 1
332 201 -0.228309 -0.136243 0.020572 1
334 201 -0.165533 -0.245740 0.032403 1
336 201 -0.108776 -0.339446 0.026785 1
338 201 -0.062261 -0.420495 0.003309 1
340 201 -0.021927 -0.497817 -0.033087 1
342 201 0.021555 -0.565704 -0.080187 1
344 201 0.072700 -0.623416 -0.137946 1
346 201 0.126448 -0.667942 -0.183922 1
348 201 0.182252 -0.695021 -0.213054 1
350 201 0.240555 -0.712598 -0.230987 1
352 201 0.299034 -0.718150 -0.237267 1
354 201 0.357121 -0.713154 -0.235397 1
356 201 0.416457 -0.695231 -0.230691 1
358 201 0.467750 -0.659792 -0.234511 1
360 201 0.517459 -0.617165 -0.249540 1
362 201 0.567644 -0.566220 -0.271908 1
364 201 0.617977 -0.509878 -0.283397 1
366 201 0.665040 -0.452954 -0.271878 1
368 201 0.705164 -0.394492 -0.242093 1
370 201 0.739647 -0.336115 -0.214745 1
372 201 0.767407 -0.276518 -0.201747 1
374 201 0.791750 -0.217147 -0.199428 1
376 201 0.811664 -0.155940 -0.200947 1
378 201 0.824876 -0.094094 -0.198280 1
380 201 0.834338 -0.035763 -0.195086 1
382 201 0.836958 0.021704 -0.194220 1
384 201 0.832729 0.078542 -0.195473 1
386 201 0.823376 0.134277 -0.197651 1
388 201 0.813707 0.186709 -0.190323 1
390 201 0.806296 0.235862 -0.165758 1
392 201 0.795609 0.282127 -0.135875 1
394 201 0.777395 0.329181 -0.118099 1
396 201 0.753841 0.379154 -0.120531 1
398 201 0.729715 0.427398 -0.135421 1
400 201 0.707013 0.475911 -0.146324 1
402 201 0.689677 0.520395 -0.136226 1
404 201 0.674014 0.556405 -0.101302 1
406 201 0.652651 0.586565 -0.061198 1
408 201 0.673930 0.608489 -0.044620 1
410 201 0.000000 0.000000 0.000000 0
412 201 0.000000 0.000000 0.000000 0
414 201 0.000000 0.000000 0.000000 0
416 201 0.000000 0.000000 0.000000 0
418 201 0.000000 0.000000 0.000000 0
420 201 0.000000 0.000000 0.000000 0
422 201 0.000000 0.000000 0.000000 0
424 201 0.000000 0.000000 0.000000 0
426 201 0.000000 0.000000 0.000000 0
428 201 0.000000 0.000000 0.000000 0
430 201 0.000000 0.000000 0.000000 0
432 201 0.000000 0.000000 0.000000 0
434 201 0.000000 0.000000 0.000000 0
436 201 0.000000 0.000000 0.000000 0
438 201 0.000000 0.000000 0.000000 0
440 201 0.000000 0.000000 0.000000 0
442 201 0.000000 0.000000 0.000000 0
444 201 0.000000 0.000000 0.000000 0
446 201 0.000000 0.000000 0.000000 0
308 203 0.000000 0.000000 0.000000 0
310 203 0.000000 0.000000 0.000000 0
312 203 0.000000 0.000000 0.000000 0
314 203 0.000000 0.000000 0.000000 0
316 203 -0.063721 0.488363 0.022796 1
318 203 -0.067436 0.470693 0.110471 1
320 203 -0.108540 0.415322 0.107878 1
322 203 -0.131429 0.340209 0.092103 1
324 203 -0.146130 0.255072 0.080293 1
326 203 -0.152268 0.160157 0.076879 1
328 203 -0.145769 0.053517 0.079483 1
330 203 -0.117294 -0.057370 0.094079 1
332 203 -0.059980 -0.177207 0.124773 1
334 203 0.009047 -0.297692 0.158108 1
336 203 0.068699 -0.398739 0.162176 1
338 203 0.117200 -0.482717 0.130941 1
340 203 0.160311 -0.560215 0.078583 1
342 203 0.207317 -0.627748 0.010701 1
344 203 0.258873 -0.686010 -0.061897 1
346 203 0.307481 -0.731905 -0.124414 1
348 203 0.354115 -0.759975 -0.168153 1
350 203 0.403148 -0.777216 -0.195378 1
352 203 0.448950 -0.780236 -0.208817 1
354 203 0.491508 -0.772788 -0.218543 1
356 203 0.529739 -0.753606 -0.233513 1
358 203 0.563459 -0.717725 -0.252872 1
360 203 0.600370 -0.673611 -0.275795 1
362 203 0.643170 -0.619834 -0.296374 1
364 203 0.688747 -0.560103 -0.301632 1
366 203 0.731050 -0.498812 -0.283669 1
368 203 0.766531 -0.435909 -0.252796 1
370 203 0.797081 -0.371244 -0.227776 1
372 203 0.824067 -0.305696 -0.216853 1
374 203 0.850315 -0.241362 -0.212750 1
376 203 0.873106 -0.176907 -0.207454 1
378 203 0.887695 -0.112016 -0.197414 1
380 203 0.895158 -0.048210 -0.189457 1
382 203 0.894364 0.015681 -0.189771 1
384 203 0.887011 0.080078 -0.196414 1
386 203 0.876855 0.141455 -0.203242 1
388 203 0.867163 0.198366 -0.197660 1
390 203 0.858377 0.251441 -0.173477 1
392 203 0.844662 0.300575 -0.143998 1
394 203 0.821826 0.349840 -0.126007 1
396 203 0.795474 0.401081 -0.126677 1
398 203 0.770729 0.450793 -0.137900 1
400 203 0.750333 0.500293 -0.143950 1
402 203 0.736726 0.544695 -0.129303 1
404 203 0.725456 0.580155 -0.093114 1
406 203 0.708304 0.610140 -0.056686 1
408 203 0.698845 0.622211 -0.044585 1
410 203 0.000000 0.000000 0.000000 0
412 203 0.000000 0.000000 0.000000 0
414 203 0.000000 0.000000 0.000000 0
416 203 0.000000 0.000000 0.000000 0
418 203 0.000000 0.000000 0.000000 0
420 203 0.000000 0.000000 0.000000 0
422 203 0.000000 0.000000 0.000000 0
424 203 0.000000 0.000000 0.000000 0
426 203 0.000000 0.000000 0.000000 0
428 203 0.000000 0.000000 0.000000 0
430 203 0.000000 0.000000 0.000000 0
432 203 0.000000 0.000000 0.000000 0
434 203 0.000000 0.000000 0.000000 0
436 203 0.000000 0.000000 0.000000 0
438 203 0.000000 0.000000 0.000000 0
440 203 0.000000 0.000000 0.000000 0
442 203 0.000000 0.000000 0.000000 0
444 203 0.000000 0.000000 0.000000 0
446 203 0.000000 0.000000 0.000000 0
308 205 0.000000 0.000000 0.000000 0
310 205 0.000000 0.000000 0.000000 0
312 205 0.000000 0.000000 0.000000 0
314 205 0.000000 0.000000 0.000000 0
316 205 0.055674 0.515114 0.114590 1
318 205 0.071035 0.489468 0.181447 1
320 205 0.065592 0.419595 0.191732 1
322 205 0.075823 0.333084 0.182977 1
324 205 0.084129 0.236632 0.181751 1
326 205 0.094598 0.129827 0.193715 1
328 205 0.113214 0.014259 0.208061 1
330 205 0.149721 -0.103030 0.229849 1
332 205 0.206047 -0.227436 0.266760 1
334 205 0.265287 -0.351474 0.301731 1
336 205 0.317629 -0.455381 0.305760 1
338 205 0.365059 -0.541297 0.270230 1
340 205 0.413342 -0.620313 0.208329 1
342 205 0.466296 -0.688587 0.129615 1
344 205 0.521093 -0.747674 0.045634 1
346 205 0.567190 -0.793833 -0.025072 1
348 205 0.608447 -0.820256 -0.073457 1
350 205 0.650725 -0.833415 -0.104106 1
352 205 0.686529 -0.829870 -0.124602 1
354 205 0.710423 -0.815614 -0.153915 1
356 205 0.726230 -0.793673 -0.193958 1
358 205 0.731893 -0.758279 -0.238467 1
360 205 0.747729 -0.715315 -0.273034 1
362 205 0.773086 -0.662397 -0.296303 1
364 205 0.804208 -0.602600 -0.301133 1
366 205 0.832918 -0.540776 -0.284901 1
368 205 0.853384 -0.475821 -0.258940 1
370 205 0.873866 -0.407217 -0.238599 1
372 205 0.894128 -0.335336 -0.230705 1
374 205 0.917537 -0.265431 -0.225954 1
376 205 0.938460 -0.196447 -0.215947 1
378 205 0.951751 -0.127560 -0.198989 1
380 205 0.957358 -0.059293 -0.186019 1
382 205 0.954145 0.011619 -0.185136 1
384 205 0.944961 0.082645 -0.194051 1
386 205 0.933665 0.150566 -0.203046 1
388 205 0.922591 0.212558 -0.199599 1
390 205 0.910763 0.270245 -0.180248 1
392 205 0.892978 0.322897 -0.155873 1
394 205 0.866708 0.373623 -0.138711 1
396 205 0.837847 0.424751 -0.134010 1
398 205 0.812425 0.474574 -0.139233 1
400 205 0.792441 0.525167 -0.140003 1
402 205 0.779673 0.571096 -0.124046 1
404 205 0.769609 0.608221 -0.091177 1
406 205 0.754594 0.639387 -0.061503 1
408 205 0.746718 0.651182 -0.052231 1
410 205 0.000000 0.000000 0.000000 0
412 205 0.000000 0.000000 0.000000 0
414 205 0.000000 0.000000 0.000000 0
416 205 0.000000 0.000000 0.000000 0
418 205 0.000000 0.000000 0.000000 0
420 205 0.000000 0.000000 0.000000 0
422 205 0.000000 0.000000 0.000000 0
424 205 0.000000 0.000000 0.000000 0
426 205 0.000000 0.000000 0.000000 0
428 205 0.000000 0.000000 0.000000 0
430 205 0.000000 0.000000 0.000000 0
432 205 0.000000 0.000000 0.000000 0
434 205 0.000000 0.000000 0.000000 0
436 205 0.000000 0.000000 0.000000 0
438 205 0.000000 0.000000 0.000000 0
440 205 0.000000 0.000000 0.000000 0
442 205 0.000000 0.000000 0.000000 0
444 205 0.000000 0.000000 0.000000 0
446 205 0.000000 0.000000 0.000000 0
308 207 0.000000 0.000000 0.000000 0
310 207 0.000000 0.000000 0.000000 0
312 207 0.000000 0.000000 0.000000 0
314 207 0.000000 0.000000 0.000000 0
316 207 0.217196 0.532801 0.202199 1
318 207 0.218823 0.488493 0.257285 1
320 207 0.255898 0.407265 0.291160 1
322 207 0.303170 0.311187 0.299100 1
324 207 0.331404 0.207846 0.313401 1
326 207 0.353351 0.095818 0.341184 1
328 207 0.382004 -0.023350 0.365525 1
330 207 0.422924 -0.141299 0.384781 1
332 207 0.475449 -0.266431 0.410265 1
334 207 0.526942 -0.392712 0.430994 1
336 207 0.573323 -0.500670 0.422345 1
338 207 0.621012 -0.591792 0.378571 1
340 207 0.673490 -0.676081 0.310035 1
342 207 0.732257 -0.748155 0.224581 1
344 207 0.790467 -0.808428 0.138048 1
346 207 0.838026 -0.853330 0.066079 1
348 207 0.878728 -0.875305 0.018001 1
350 207 0.918681 -0.880608 -0.013691 1
352 207 0.948269 -0.866430 -0.040453 1
354 207 0.961957 -0.842357 -0.082557 1
356 207 0.960242 -0.814169 -0.143945 1
358 207 0.947285 -0.777935 -0.205333 1
360 207 0.939975 -0.737056 -0.253295 1
362 207 0.946026 -0.687049 -0.282579 1
364 207 0.956559 -0.630293 -0.293726 1
366 207 0.963281 -0.571110 -0.286175 1
368 207 0.963191 -0.507720 -0.268382 1
370 207 0.965630 -0.437928 -0.253307 1
372 207 0.976149 -0.362825 -0.246165 1
374 207 0.992139 -0.287885 -0.240790 1
376 207 1.007982 -0.214377 -0.228952 1
378 207 1.017833 -0.140913 -0.208766 1
380 207 1.021790 -0.067317 -0.191626 1
382 207 1.018477 0.009495 -0.187476 1
384 207 1.009489 0.087753 -0.194327 1
386 207 0.997410 0.160998 -0.202105 1
388 207 0.983835 0.228449 -0.199828 1
390 207 0.968131 0.290640 -0.186215 1
392 207 0.946526 0.346935 -0.168338 1
394 207 0.917666 0.399408 -0.151893 1
396 207 0.887560 0.450175 -0.141163 1
398 207 0.861073 0.499344 -0.137536 1
400 207 0.839929 0.550550 -0.134332 1
402 207 0.825333 0.598614 -0.120325 1
404 207 0.813576 0.638644 -0.095032 1
406 207 0.798152 0.671802 -0.073101 1
408 207 0.791988 0.683332 -0.065780 1
410 207 0.000000 0.000000 0.000000 0
412 207 0.000000 0.000000 0.000000 0
414 207 0.000000 0.000000 0.000000 0
416 207 0.000000 0.000000 0.000000 0
418 207 0.000000 0.000000 0.000000 0
420 207 0.000000 0.000000 0.000000 0
422 207 0.000000 0.000000 0.000000 0
424 207 0.000000 0.000000 0.000000 0
426 207 0.000000 0.000000 0.000000 0
428 207 0.000000 0.000000 0.000000 0
430 207 0.000000 0.000000 0.000000 0
432 207 0.000000 0.000000 0.000000 0
434 207 0.000000 0.000000 0.000000 0
436 207 0.000000 0.000000 0.000000 0
438 207 0.000000 0.000000 0.000000 0
440 207 0.000000 0.000000 0.000000 0
442 207 0.000000 0.000000 0.000000 0
444 207 0.000000 0.000000 0.000000 0
446 207 0.000000 0.000000 0.000000 0
308 209 0.000000 0.000000 0.000000 0
310 209 0.000000 0.000000 0.000000 0
312 209 0.000000 0.000000 0.000000 0
314 209 0.000000 0.000000 0.000000 0
316 209 0.433135 0.529717 0.248142 1
318 209 0.449198 0.472917 0.318301 1
320 209 0.515964 0.378269 0.375240 1
322 209 0.583503 0.275847 0.397994 1
324 209 0.622073 0.171144 0.423469 1
326 209 0.645262 0.062777 0.458255 1
328 209 0.672882 -0.050668 0.483804 1
330 209 0.711921 -0.163710 0.493838 1
332 209 0.762748 -0.287348 0.502234 1
334 209 0.815430 -0.417029 0.495496 1
336 209 0.863634 -0.531791 0.466970 1
338 209 0.912565 -0.633129 0.409299 1
340 209 0.964783 -0.726956 0.338038 1
342 209 1.021962 -0.804606 0.258614 1
344 209 1.078997 -0.864862 0.187089 1
346 209 1.126848 -0.905819 0.126296 1
348 209 1.166753 -0.918637 0.083692 1
350 209 1.204438 -0.913347 0.050338 1
352 209 1.230019 -0.885933 0.017738 1
354 209 1.240246 -0.849432 -0.029405 1
356 209 1.235555 -0.812219 -0.092352 1
358 209 1.216713 -0.770306 -0.151264 1
360 209 1.198564 -0.728265 -0.199306 1
362 209 1.185515 -0.680221 -0.233696 1
364 209 1.172581 -0.627041 -0.257257 1
366 209 1.149865 -0.572596 -0.267984 1
368 209 1.120073 -0.514530 -0.266524 1
370 209 1.099286 -0.448752 -0.259582 1
372 209 1.089532 -0.376373 -0.254859 1
374 209 1.091524 -0.301528 -0.250831 1
376 209 1.093869 -0.226433 -0.241578 1
378 209 1.095724 -0.149760 -0.222233 1
380 209 1.095521 -0.071308 -0.203041 1
382 209 1.092138 0.011463 -0.193077 1
384 209 1.084222 0.094829 -0.193714 1
386 209 1.071311 0.172900 -0.196015 1
388 209 1.054994 0.244190 -0.193396 1
390 209 1.035014 0.310464 -0.184658 1
392 209 1.010643 0.370211 -0.172460 1
394 209 0.981171 0.425091 -0.156613 1
396 209 0.951387 0.476491 -0.139439 1
398 209 0.924139 0.525336 -0.128917 1
400 209 0.899539 0.576327 -0.122952 1
402 209 0.880702 0.625434 -0.113527 1
404 209 0.864760 0.667861 -0.097567 1
406 209 0.847997 0.702626 -0.081649 1
408 209 0.841956 0.713763 -0.073555 1
410 209 0.000000 0.000000 0.000000 0
412 209 0.000000 0.000000 0.000000 0
414 209 0.000000 0.000000 0.000000 0
416 209 0.000000 0.000000 0.000000 0
418 209 0.000000 0.000000 0.000000 0
420 209 0.000000 0.000000 0.000000 0
422 209 0.000000 0.000000 0.000000 0
424 209 0.000000 0.000000 0.000000 0
426 209 0.000000 0.000000 0.000000 0
428 209 0.000000 0.000000 0.000000 0
430 209 0.000000 0.000000 0.000000 0
432 209 0.000000 0.000000 0.000000 0
434 209 0.000000 0.000000 0.000000 0
436 209 0.000000 0.000000 0.000000 0
438 209 0.000000 0.000000 0.000000 0
440 209 0.000000 0.000000 0.000000 0
442 209 0.000000 0.000000 0.000000 0
444 209 0.000000 0.000000 0.000000 0
446 209 0.000000 0.000000 0.000000 0
308 211 0.000000 0.000000 0.000000 0
310 211 0.000000 0.000000 0.000000 0
312 211 0.000000 0.000000 0.000000 0
314 211 0.000000 0.000000 0.000000 0
316 211 0.706287 0.522054 0.276940 1
318 211 0.737087 0.456120 0.357054 1
320 211 0.816010 0.350640 0.428567 1
322 211 0.896387 0.239971 0.463217 1
324 211 0.940130 0.135329 0.490365 1
326 211 0.960879 0.033126 0.522573 1
328 211 0.981472 -0.072231 0.543301 1
330 211 1.014294 -0.180138 0.543008 1
332 211 1.063287 -0.301132 0.530254 1
334 211 1.120755 -0.432848 0.495695 1
336 211 1.174744 -0.555543 0.438220 1
338 211 1.225095 -0.667647 0.367994 1
340 211 1.275172 -0.772637 0.302036 1
342 211 1.327599 -0.856216 0.241892 1
344 211 1.380217 -0.915821 0.195595 1
346 211 1.425010 -0.951475 0.156743 1
348 211 1.461065 -0.956483 0.121877 1
350 211 1.493155 -0.940231 0.086883 1
352 211 1.514336 -0.901798 0.049268 1
354 211 1.523639 -0.852919 0.002905 1
356 211 1.522693 -0.803682 -0.049127 1
358 211 1.509225 -0.751246 -0.089955 1
360 211 1.490174 -0.701359 -0.123592 1
362 211 1.466992 -0.650536 -0.156182 1
364 211 1.432051 -0.597693 -0.191654 1
366 211 1.382554 -0.546299 -0.222563 1
368 211 1.323054 -0.494561 -0.244223 1
370 211 1.272808 -0.437242 -0.253717 1
372 211 1.238008 -0.373186 -0.257226 1
374 211 1.214872 -0.304922 -0.258942 1
376 211 1.198883 -0.232689 -0.254470 1
378 211 1.185422 -0.155967 -0.238531 1
380 211 1.176859 -0.074651 -0.217925 1
382 211 1.170072 0.012336 -0.200348 1
384 211 1.162104 0.100299 -0.190815 1
386 211 1.148708 0.182082 -0.185884 1
388 211 1.130152 0.257438 -0.180126 1
390 211 1.107067 0.327000 -0.173595 1
392 211 1.079701 0.390581 -0.166641 1
394 211 1.049906 0.448870 -0.152989 1
396 211 1.021008 0.502766 -0.133372 1
398 211 0.993301 0.552433 -0.117834 1
400 211 0.965293 0.602646 -0.109351 1
402 211 0.941223 0.650502 -0.100575 1
404 211 0.922183 0.692825 -0.086811 1
406 211 0.904705 0.727609 -0.070626 1
408 211 0.898883 0.738849 -0.061863 1
410 211 0.000000 0.000000 0.000000 0
412 211 0.000000 0.000000 0.000000 0
414 211 0.000000 0.000000 0.000000 0
416 211 0.000000 0.000000 0.000000 0
418 211 0.000000 0.000000 0.000000 0
420 211 0.000000 0.000000 0.000000 0
422 211 0.000000 0.000000 0.000000 0
424 211 0.000000 0.000000 0.000000 0
426 211 0.000000 0.000000 0.000000 0
428 211 0.000000 0.000000 0.000000 0
430 211 0.000000 0.000000 0.000000 0
432 211 0.000000 0.000000 0.000000 0
434 211 0.000000 0.000000 0.000000 0
436 211 0.000000 0.000000 0.000000 0
438 211 0.000000 0.000000 0.000000 0
440 211 0.000000 0.000000 0.000000 0
442 211 0.000000 0.000000 0.000000 0
444 211 0.000000 0.000000 0.000000 0
446 211 0.000000 0.000000 0.000000 0
308 213 0.000000 0.000000 0.000000 0
310 213 0.000000 0.000000 0.000000 0
312 213 0.000000 0.000000 0.000000 0
314 213 0.000000 0.000000 0.000000 0
316 213 1.010445 0.511937 0.284009 1
318 213 1.044520 0.443768 0.366164 1
320 213 1.126598 0.330871 0.442759 1
322 213 1.208823 0.214086 0.480375 1
324 213 1.256584 0.108082 0.500734 1
326 213 1.277433 0.008831 0.522898 1
328 213 1.293404 -0.092831 0.530638 1
330 213 1.322197 -0.199614 0.515351 1
332 213 1.370407 -0.319785 0.483756 1
334 213 1.431969 -0.452427 0.426021 1
336 213 1.488510 -0.579132 0.352638 1
338 213 1.536761 -0.698722 0.280516 1
340 213 1.582095 -0.809025 0.228215 1
342 213 1.626907 -0.894312 0.192634 1
344 213 1.671242 -0.951202 0.171356 1
346 213 1.708607 -0.982282 0.152471 1
348 213 1.734951 -0.980462 0.127517 1
350 213 1.758135 -0.957499 0.092598 1
352 213 1.771018 -0.910355 0.052255 1