TITLE = "B00004"
VARIABLES = "X", "Y", "Vx", "Vy", "Vz", "flag"
ZONE T="B00004", I=70, J=78
308 191 0.000000 0.000000 0.000000 0
310 191 0.000000 0.000000 0.000000 0
312 191 0.000000 0.000000 0.000000 0
314 191 0.000000 0.000000 0.000000 0
316 191 0.000000 0.000000 0.000000 0
318 191 0.000000 0.000000 0.000000 0
320 191 0.000000 0.000000 0.000000 0
322 191 0.000000 0.000000 0.000000 0
324 191 0.000000 0.000000 0.000000 0
326 191 0.000000 0.000000 0.000000 0
328 191 0.000000 0.000000 0.000000 0
330 191 0.000000 0.000000 0.000000 0
332 191 0.000000 0.000000 0.000000 0
334 191 0.000000 0.000000 0.000000 0
336 191 0.000000 0.000000 0.000000 0
338 191 0.000000 0.000000 0.000000 0
340 191 0.000000 0.000000 0.000000 0
342 191 0.000000 0.000000 0.000000 0
344 191 0.000000 0.000000 0.000000 0
346 191 0.000000 0.000000 0.000000 0
348 191 0.000000 0.000000 0.000000 0
350 191 0.000000 0.000000 0.000000 0
352 191 0.000000 0.000000 0.000000 0
354 191 0.000000 0.000000 0.000000 0
356 191 0.000000 0.000000 0.000000 0
358 191 0.000000 0.000000 0.000000 0
360 191 0.000000 0.000000 0.000000 0
362 191 0.000000 0.000000 0.000000 0
364 191 0.000000 0.000000 0.000000 0
366 191 0.000000 0.000000 0.000000 0
368 191 0.000000 0.000000 0.000000 0
370 191 0.000000 0.000000 0.000000 0
372 191 0.000000 0.000000 0.000000 0
374 191 0.000000 0.000000 0.000000 0
376 191 0.000000 0.000000 0.000000 0
378 191 0.000000 0.000000 0.000000 0
380 191 0.000000 0.000000 0.000000 0
382 191 0.000000 0.000000 0.000000 0
384 191 0.000000 0.000000 0.000000 0
386 191 0.000000 0.000000 0.000000 0
388 191 0.000000 0.000000 0.000000 0
390 191 0.000000 0.000000 0.000000 0
392 191 0.000000 0.000000 0.000000 0
394 191 0.000000 0.000000 0.000000 0
396 191 0.000000 0.000000 0.000000 0
398 191 0.000000 0.000000 0.000000 0
400 191 0.000000 0.000000 0.000000 0
402 191 0.000000 0.000000 0.000000 0
404 191 0.000000 0.000000 0.000000 0
406 191 0.000000 0.000000 0.000000 0
408 191 0.000000 0.000000 0.000000 0
410 191 0.000000 0.000000 0.000000 0
412 191 0.000000 0.000000 0.000000 0
414 191 0.000000 0.000000 0.000000 0
416 191 0.000000 0.000000 0.000000 0
418 191 0.000000 0.000000 0.000000 0
420 191 0.000000 0.000000 0.000000 0
422 191 0.000000 0.000000 0.000000 0
424 191 0.000000 0.000000 0.000000 0
426 191 0.000000 0.000000 0.000000 0
428 191 0.000000 0.000000 0.000000 0
430 191 0.000000 0.000000 0.000000 0
432 191 0.000000 0.000000 0.000000 0
434 191 0.000000 0.000000 0.000000 0
436 191 0.000000 0.000000 0.000000 0
438 191 0.000000 0.000000 0.000000 0
440 191 0.000000 0.000000 0.000000 0
442 191 0.000000 0.000000 0.000000 0
444 191 0.000000 0.000000 0.000000 0
446 191 0.000000 0.000000 0.000000 0
308 193 0.000000 0.000000 0.000000 0
310 193 0.000000 0.000000 0.000000 0
312 193 0.000000 0.000000 0.000000 0
314 193 0.000000 0.000000 0.000000 0
316 193 0.000000 0.000000 0.000000 0
318 193 0.000000 0.000000 0.000000 0
320 193 0.000000 0.000000 0.000000 0
322 193 0.000000 0.000000 0.000000 0
324 193 0.000000 0.000000 0.000000 0
326 193 0.000000 0.000000 0.000000 0
328 193 0.000000 0.000000 0.000000 0
330 193 0.000000 0.000000 0.000000 0
332 193 0.000000 0.000000 0.000000 0
334 193 0.000000 0.000000 0.000000 0
336 193 0.000000 0.000000 0.000000 0
338 193 0.000000 0.000000 0.000000 0
340 193 0.000000 0.000000 0.000000 0
342 193 0.000000 0.000000 0.000000 0
344 193 0.000000 0.000000 0.000000 0
346 193 0.000000 0.000000 0.000000 0
348 193 0.000000 0.000000 0.000000 0
350 193 0.000000 0.000000 0.000000 0
352 193 0.000000 0.000000 0.000000 0
354 193 0.000000 0.000000 0.000000 0
356 193 0.000000 0.000000 0.000000 0
358 193 0.000000 0.000000 0.000000 0
360 193 0.000000 0.000000 0.000000 0
362 193 0.000000 0.000000 0.000000 0
364 193 0.000000 0.000000 0.000000 0
366 193 0.000000 0.000000 0.000000 0
368 193 0.000000 0.000000 0.000000 0
370 193 0.000000 0.000000 0.000000 0
372 193 0.000000 0.000000 0.000000 0
374 193 0.000000 0.000000 0.000000 0
376 193 0.000000 0.000000 0.000000 0
378 193 0.000000 0.000000 0.000000 0
380 193 0.000000 0.000000 0.000000 0
382 193 0.000000 0.000000 0.000000 0
384 193 0.000000 0.000000 0.000000 0
386 193 0.000000 0.000000 0.000000 0
388 193 0.000000 0.000000 0.000000 0
390 193 0.000000 0.000000 0.000000 0
392 193 0.000000 0.000000 0.000000 0
394 193 0.000000 0.000000 0.000000 0
396 193 0.000000 0.000000 0.000000 0
398 193 0.000000 0.000000 0.000000 0
400 193 0.000000 0.000000 0.000000 0
402 193 0.000000 0.000000 0.000000 0
404 193 0.000000 0.000000 0.000000 0
406 193 0.000000 0.000000 0.000000 0
408 193 0.000000 0.000000 0.000000 0
410 193 0.000000 0.000000 0.000000 0
412 193 0.000000 0.000000 0.000000 0
414 193 0.000000 0.000000 0.000000 0
416 193 0.000000 0.000000 0.000000 0
418 193 0.000000 0.000000 0.000000 0
420 193 0.000000 0.000000 0.000000 0
422 193 0.000000 0.000000 0.000000 0
424 193 0.000000 0.000000 0.000000 0
426 193 0.000000 0.000000 0.000000 0
428 193 0.000000 0.000000 0.000000 0
430 193 0.000000 0.000000 0.000000 0
432 193 0.000000 0.000000 0.000000 0
434 193 0.000000 0.000000 0.000000 0
436 193 0.000000 0.000000 0.000000 0
438 193 0.000000 0.000000 0.000000 0
440 193 0.000000 0.000000 0.000000 0
442 193 0.000000 0.000000 0.000000 0
444 193 0.000000 0.000000 0.000000 0
446 193 0.000000 0.000000 0.000000 0
308 195 0.000000 0.000000 0.000000 0
310 195 0.000000 0.000000 0.000000 0
312 195 0.000000 0.000000 0.000000 0
314 195 0.000000 0.000000 0.000000 0
316 195 0.000000 0.000000 0.000000 0
318 195 0.000000 0.000000 0.000000 0
320 195 0.000000 0.000000 0.000000 0
322 195 0.000000 0.000000 0.000000 0
324 195 0.000000 0.000000 0.000000 0
326 195 0.000000 0.000000 0.000000 0
328 195 0.000000 0.000000 0.000000 0
330 195 0.000000 0.000000 0.000000 0
332 195 0.000000 0.000000 0.000000 0
334 195 0.000000 0.000000 0.000000 0
336 195 0.000000 0.000000 0.000000 0
338 195 0.000000 0.000000 0.000000 0
340 195 0.000000 0.000000 0.000000 0
342 195 0.000000 0.000000 0.000000 0
344 195 0.000000 0.000000 0.000000 0
346 195 0.000000 0.000000 0.000000 0
348 195 0.000000 0.000000 0.000000 0
350 195 0.000000 0.000000 0.000000 0
352 195 0.000000 0.000000 0.000000 0
354 195 0.000000 0.000000 0.000000 0
356 195 0.000000 0.000000 0.000000 0
358 195 0.000000 0.000000 0.000000 0
360 195 0.000000 0.000000 0.000000 0
362 195 0.000000 0.000000 0.000000 0
364 195 0.000000 0.000000 0.000000 0
366 195 0.000000 0.000000 0.000000 0
368 195 0.000000 0.000000 0.000000 0
370 195 0.000000 0.000000 0.000000 0
372 195 0.000000 0.000000 0.000000 0
374 195 0.000000 0.000000 0.000000 0
376 195 0.000000 0.000000 0.000000 0
378 195 0.000000 0.000000 0.000000 0
380 195 0.000000 0.000000 0.000000 0
382 195 0.000000 0.000000 0.000000 0
384 195 0.000000 0.000000 0.000000 0
386 195 0.000000 0.000000 0.000000 0
388 195 0.000000 0.000000 0.000000 0
390 195 0.000000 0.000000 0.000000 0
392 195 0.000000 0.000000 0.000000 0
394 195 0.000000 0.000000 0.000000 0
396 195 0.000000 0.000000 0.000000 0
398 195 0.000000 0.000000 0.000000 0
400 195 0.000000 0.000000 0.000000 0
402 195 0.000000 0.000000 0.000000 0
404 195 0.000000 0.000000 0.000000 0
406 195 0.000000 0.000000 0.000000 0
408 195 0.000000 0.000000 0.000000 0
410 195 0.000000 0.000000 0.000000 0
412 195 0.000000 0.000000 0.000000 0
414 195 0.000000 0.000000 0.000000 0
416 195 0.000000 0.000000 0.000000 0
418 195 0.000000 0.000000 0.000000 0
420 195 0.000000 0.000000 0.000000 0
422 195 0.000000 0.000000 0.000000 0
424 195 0.000000 0.000000 0.000000 0
426 195 0.000000 0.000000 0.000000 0
428 195 0.000000 0.000000 0.000000 0
430 195 0.000000 0.000000 0.000000 0
432 195 0.000000 0.000000 0.000000 0
434 195 0.000000 0.000000 0.000000 0
436 195 0.000000 0.000000 0.000000 0
438 195 0.000000 0.000000 0.000000 0
440 195 0.000000 0.000000 0.000000 0
442 195 0.000000 0.000000 0.000000 0
444 195 0.000000 0.000000 0.000000 0
446 195 0.000000 0.000000 0.000000 0
308 197 0.000000 0.000000 0.000000 0
310 197 0.000000 0.000000 0.000000 0
312 197 0.000000 0.000000 0.000000 0
314 197 0.000000 0.000000 0.000000 0
316 197 0.000000 0.000000 0.000000 0
318 197 -0.050732 -0.221480 -0.104792 1
320 197 -0.013358 -0.231067 -0.093325 1
322 197 0.036776 -0.262916 -0.087695 1
324 197 0.079145 -0.285641 -0.076217 1
326 197 0.115418 -0.298689 -0.070844 1
328 197 0.152102 -0.301207 -0.073951 1
330 197 0.192619 -0.295953 -0.077622 1
332 197 0.236447 -0.285492 -0.091609 1
334 197 0.277104 -0.273036 -0.121675 1
336 197 0.315801 -0.258339 -0.146841 1
338 197 0.353412 -0.240715 -0.155990 1
340 197 0.383942 -0.218578 -0.153059 1
342 197 0.400388 -0.188377 -0.142308 1
344 197 0.410013 -0.151783 -0.128960 1
346 197 0.423169 -0.114667 -0.119112 1
348 197 0.450854 -0.079118 -0.115859 1
350 197 0.486838 -0.046345 -0.110977 1
352 197 0.516105 -0.015790 -0.102148 1
354 197 0.528103 0.014227 -0.098010 1
356 197 0.524575 0.043763 -0.106809 1
358 197 0.509835 0.076742 -0.123514 1
360 197 0.496490 0.112667 -0.135431 1
362 197 0.488548 0.151745 -0.136655 1
364 197 0.482634 0.191151 -0.125088 1
366 197 0.476799 0.224910 -0.101433 1
368 197 0.469580 0.252190 -0.074882 1
370 197 0.462303 0.277941 -0.053015 1
372 197 0.446646 0.299676 -0.044165 1
374 197 0.424404 0.318348 -0.046320 1
376 197 0.397852 0.333713 -0.055514 1
378 197 0.366834 0.344135 -0.065200 1
380 197 0.335656 0.351997 -0.073746 1
382 197 0.310559 0.357847 -0.078295 1
384 197 0.290036 0.364178 -0.080532 1
386 197 0.272731 0.371443 -0.078313 1
388 197 0.259336 0.373653 -0.069039 1
390 197 0.248163 0.371017 -0.054847 1
392 197 0.240929 0.366739 -0.043293 1
394 197 0.236747 0.363581 -0.037978 1
396 197 0.232915 0.365497 -0.041084 1
398 197 0.231512 0.374718 -0.053840 1
400 197 0.233579 0.386961 -0.071636 1
402 197 0.238193 0.395118 -0.082630 1
404 197 0.261764 0.392100 -0.072363 1
406 197 0.000000 0.000000 0.000000 0
408 197 0.000000 0.000000 0.000000 0
410 197 0.000000 0.000000 0.000000 0
412 197 0.000000 0.000000 0.000000 0
414 197 0.000000 0.000000 0.000000 0
416 197 0.000000 0.000000 0.000000 0
418 197 0.000000 0.000000 0.000000 0
420 197 0.000000 0.000000 0.000000 0
422 197 0.000000 0.000000 0.000000 0
424 197 0.000000 0.000000 0.000000 0
426 197 0.000000 0.000000 0.000000 0
428 197 0.000000 0.000000 0.000000 0
430 197 0.000000 0.000000 0.000000 0
432 197 0.000000 0.000000 0.000000 0
434 197 0.000000 0.000000 0.000000 0
436 197 0.000000 0.000000 0.000000 0
438 197 0.000000 0.000000 0.000000 0
440 197 0.000000 0.000000 0.000000 0
442 197 0.000000 0.000000 0.000000 0
444 197 0.000000 0.000000 0.000000 0
446 197 0.000000 0.000000 0.000000 0
308 199 0.000000 0.000000 0.000000 0
310 199 0.000000 0.000000 0.000000 0
312 199 0.000000 0.000000 0.000000 0
314 199 0.000000 0.000000 0.000000 0
316 199 -0.115423 -0.202701 -0.119338 1
318 199 -0.078986 -0.234614 -0.111681 1
320 199 -0.025465 -0.285882 -0.115631 1
322 199 0.025409 -0.323832 -0.120681 1
324 199 0.065076 -0.354031 -0.117499 1
326 199 0.098361 -0.373199 -0.119632 1
328 199 0.133019 -0.380106 -0.131866 1
330 199 0.176026 -0.374292 -0.141173 1
332 199 0.228452 -0.359622 -0.153179 1
334 199 0.285334 -0.340195 -0.171664 1
336 199 0.339820 -0.319578 -0.184830 1
338 199 0.393960 -0.296650 -0.184950 1
340 199 0.436971 -0.270974 -0.179607 1
342 199 0.466122 -0.236780 -0.170822 1
344 199 0.486055 -0.194808 -0.162037 1
346 199 0.504496 -0.151083 -0.156907 1
348 199 0.529017 -0.107434 -0.154681 1
350 199 0.556954 -0.067914 -0.146103 1
352 199 0.575791 -0.030031 -0.128627 1
354 199 0.582535 0.006544 -0.116194 1
356 199 0.578017 0.043798 -0.117692 1
358 199 0.565619 0.085091 -0.130561 1
360 199 0.554759 0.128370 -0.141503 1
362 199 0.547066 0.172977 -0.141365 1
364 199 0.537826 0.214660 -0.128203 1
366 199 0.523913 0.248940 -0.104808 1
368 199 0.507394 0.276103 -0.081080 1
370 199 0.490819 0.302105 -0.062553 1
372 199 0.467946 0.325125 -0.056007 1
374 199 0.440721 0.345854 -0.059566 1
376 199 0.410173 0.364494 -0.069269 1
378 199 0.376632 0.377118 -0.076893 1
380 199 0.343363 0.385737 -0.078338 1
382 199 0.317262 0.390295 -0.073576 1
384 199 0.296594 0.394178 -0.068071 1
386 199 0.279819 0.398417 -0.064055 1
388 199 0.267104 0.397744 -0.055515 1
390 199 0.256784 0.391163 -0.041307 1
392 199 0.250381 0.382873 -0.028058 1
394 199 0.247567 0.374983 -0.020681 1
396 199 0.246242 0.372816 -0.023528 1
398 199 0.248950 0.377993 -0.036343 1
400 199 0.257803 0.385681 -0.053185 1
402 199 0.270873 0.391230 -0.065085 1
404 199 0.288294 0.389518 -0.070135 1
406 199 0.310224 0.381718 -0.069457 1
408 199 0.000000 0.000000 0.000000 0
410 199 0.000000 0.000000 0.000000 0
412 199 0.000000 0.000000 0.000000 0
414 199 0.000000 0.000000 0.000000 0
416 199 0.000000 0.000000 0.000000 0
418 199 0.000000 0.000000 0.000000 0
420 199 0.000000 0.000000 0.000000 0
422 199 0.000000 0.000000 0.000000 0
424 199 0.000000 0.000000 0.000000 0
426 199 0.000000 0.000000 0.000000 0
428 199 0.000000 0.000000 0.000000 0
430 199 0.000000 0.000000 0.000000 0
432 199 0.000000 0.000000 0.000000 0
434 199 0.000000 0.000000 0.000000 0
436 199 0.000000 0.000000 0.000000 0
438 199 0.000000 0.000000 0.000000 0
440 199 0.000000 0.000000 0.000000 0
442 199 0.000000 0.000000 0.000000 0
444 199 0.000000 0.000000 0.000000 0
446 199 0.000000 0.000000 0.000000 0
308 201 0.000000 0.000000 0.000000 0
310 201 0.000000 0.000000 0.000000 0
312 201 0.000000 0.000000 0.000000 0
314 201 0.000000 0.000000 0.000000 0
316 201 -0.123119 -0.233353 -0.094149 1
318 201 -0.091617 -0.283023 -0.107316 1
320 201 -0.031380 -0.341131 -0.141230 1
322 201 0.026100 -0.384172 -0.157764 1
324 201 0.069954 -0.418799 -0.148303 1
326 201 0.106144 -0.444772 -0.142448 1
328 201 0.140338 -0.456476 -0.152659 1
330 201 0.180739 -0.451975 -0.165910 1
332 201 0.235142 -0.435177 -0.181197 1
334 201 0.298935 -0.411612 -0.199375 1
336 201 0.363544 -0.385066 -0.209545 1
338 201 0.425116 -0.356686 -0.208212 1
340 201 0.476559 -0.324978 -0.201856 1
342 201 0.515091 -0.285916 -0.191728 1
344 201 0.546592 -0.238529 -0.179985 1
346 201 0.573259 -0.188415 -0.172967 1
348 201 0.598486 -0.137607 -0.169262 1
350 201 0.620969 -0.090081 -0.159072 1
352 201 0.634218 -0.045667 -0.138204 1
354 201 0.637890 -0.001657 -0.119810 1
356 201 0.633798 0.042674 -0.115145 1
358 201 0.623702 0.092136 -0.123075 1
360 201 0.614964 0.143008 -0.132255 1
362 201 0.607242 0.192379 -0.131465 1
364 201 0.594438 0.236769 -0.118872 1
366 201 0.574123 0.272184 -0.099385 1
368 201 0.547997 0.301062 -0.082859 1
370 201 0.522547 0.329339 -0.069764 1
372 201 0.492203 0.356026 -0.065680 1
374 201 0.459099 0.380888 -0.069773 1
376 201 0.424351 0.403437 -0.078536 1
378 201 0.387134 0.418764 -0.083266 1
380 201 0.351725 0.427684 -0.079207 1
382 201 0.324553 0.429685 -0.065440 1
384 201 0.303955 0.429503 -0.052583 1
386 201 0.287399 0.429346 -0.047209 1
388 201 0.274821 0.425076 -0.040879 1
390 201 0.264267 0.415485 -0.028738 1
392 201 0.257927 0.402895 -0.016860 1
394 201 0.256193 0.390383 -0.010684 1
396 201 0.258490 0.382158 -0.016186 1
398 201 0.266412 0.381101 -0.029996 1
400 201 0.282567 0.381739 -0.045226 1
402 201 0.305515 0.381460 -0.057138 1
404 201 0.334071 0.375903 -0.065360 1
406 201 0.363701 0.364044 -0.070195 1
408 201 0.405317 0.341405 -0.065706 1
410 201 0.000000 0.000000 0.000000 0
412 201 0.000000 0.000000 0.000000 0
414 201 0.000000 0.000000 0.000000 0
416 201 0.000000 0.000000 0.000000 0
418 201 0.000000 0.000000 0.000000 0
420 201 0.000000 0.000000 0.000000 0
422 201 0.000000 0.000000 0.000000 0
424 201 0.000000 0.000000 0.000000 0
426 201 0.000000 0.000000 0.000000 0
428 201 0.000000 0.000000 0.000000 0
430 201 0.000000 0.000000 0.000000 0
432 201 0.000000 0.000000 0.000000 0
434 201 0.000000 0.000000 0.000000 0
436 201 0.000000 0.000000 0.000000 0
438 201 0.000000 0.000000 0.000000 0
440 201 0.000000 0.000000 0.000000 0
442 201 0.000000 0.000000 0.000000 0
444 201 0.000000 0.000000 0.000000 0
446 201 0.000000 0.000000 0.000000 0
308 203 0.000000 0.000000 0.000000 0
310 203 0.000000 0.000000 0.000000 0
312 203 0.000000 0.000000 0.000000 0
314 203 0.000000 0.000000 0.000000 0
316 203 -0.095140 -0.270717 -0.047290 1
318 203 -0.066311 -0.328463 -0.082381 1
320 203 0.004265 -0.393557 -0.146756 1
322 203 0.074699 -0.439655 -0.176386 1
324 203 0.129720 -0.476789 -0.156837 1
326 203 0.171982 -0.504965 -0.142011 1
328 203 0.205387 -0.518748 -0.147658 1
330 203 0.237625 -0.514939 -0.162846 1
332 203 0.282168 -0.498430 -0.181799 1
334 203 0.339044 -0.474309 -0.202800 1
336 203 0.398947 -0.444970 -0.215929 1
338 203 0.456182 -0.410707 -0.219049 1
340 203 0.505959 -0.372909 -0.216295 1
342 203 0.548533 -0.327174 -0.206431 1
344 203 0.588097 -0.275438 -0.189835 1
346 203 0.623595 -0.221068 -0.174856 1
348 203 0.652418 -0.165112 -0.166256 1
350 203 0.674564 -0.111766 -0.156001 1
352 203 0.686336 -0.060665 -0.135827 1
354 203 0.690138 -0.010639 -0.115706 1
356 203 0.687795 0.041260 -0.106114 1
358 203 0.679519 0.098007 -0.109572 1
360 203 0.671777 0.156001 -0.116500 1
362 203 0.662851 0.209776 -0.115540 1
364 203 0.647012 0.256444 -0.104274 1
366 203 0.621156 0.294111 -0.089769 1
368 203 0.589014 0.326194 -0.078593 1
370 203 0.555929 0.359625 -0.069807 1
372 203 0.520002 0.391599 -0.065668 1
374 203 0.482371 0.421386 -0.067108 1
376 203 0.443897 0.447142 -0.071086 1
378 203 0.403485 0.463460 -0.071763 1
380 203 0.364788 0.471736 -0.064141 1
382 203 0.335494 0.471294 -0.047204 1
384 203 0.313490 0.466155 -0.029726 1
386 203 0.296162 0.460607 -0.021786 1
388 203 0.282750 0.451565 -0.015310 1
390 203 0.270520 0.437996 -0.004759 1
392 203 0.262854 0.421764 0.003806 1
394 203 0.261863 0.403714 0.004198 1
396 203 0.268337 0.389270 -0.005589 1
398 203 0.283836 0.379480 -0.020435 1
400 203 0.308829 0.369605 -0.031603 1
402 203 0.341736 0.358170 -0.038600 1
404 203 0.382808 0.342453 -0.044553 1
406 203 0.423279 0.323369 -0.048537 1
408 203 0.438535 0.311525 -0.043967 1
410 203 0.000000 0.000000 0.000000 0
412 203 0.000000 0.000000 0.000000 0
414 203 0.000000 0.000000 0.000000 0
416 203 0.000000 0.000000 0.000000 0
418 203 0.000000 0.000000 0.000000 0
420 203 0.000000 0.000000 0.000000 0
422 203 0.000000 0.000000 0.000000 0
424 203 0.000000 0.000000 0.000000 0
426 203 0.000000 0.000000 0.000000 0
428 203 0.000000 0.000000 0.000000 0
430 203 0.000000 0.000000 0.000000 0
432 203 0.000000 0.000000 0.000000 0
434 203 0.000000 0.000000 0.000000 0
436 203 0.000000 0.000000 0.000000 0
438 203 0.000000 0.000000 0.000000 0
440 203 0.000000 0.000000 0.000000 0
442 203 0.000000 0.000000 0.000000 0
444 203 0.000000 0.000000 0.000000 0
446 203 0.000000 0.000000 0.000000 0
308 205 0.000000 0.000000 0.000000 0
310 205 0.000000 0.000000 0.000000 0
312 205 0.000000 0.000000 0.000000 0
314 205 0.000000 0.000000 0.000000 0
316 205 0.011759 -0.300915 0.012652 1
318 205 0.043012 -0.369761 -0.022994 1
320 205 0.130661 -0.443973 -0.107600 1
322 205 0.217894 -0.493206 -0.150899 1
324 205 0.280586 -0.530064 -0.135504 1
326 205 0.322484 -0.554145 -0.126749 1
328 205 0.349273 -0.563725 -0.136927 1
330 205 0.365672 -0.558654 -0.154489 1
332 205 0.393176 -0.543915 -0.173912 1
334 205 0.429755 -0.523129 -0.194744 1
336 205 0.472080 -0.494707 -0.209982 1
338 205 0.514259 -0.458160 -0.219057 1
340 205 0.552783 -0.415680 -0.224389 1
342 205 0.591406 -0.365488 -0.219157 1
344 205 0.631883 -0.310193 -0.201094 1
346 205 0.670448 -0.253490 -0.179734 1
348 205 0.701389 -0.194061 -0.166369 1
350 205 0.725054 -0.135304 -0.157120 1
352 205 0.738383 -0.077756 -0.139178 1
354 205 0.744527 -0.019775 -0.118030 1
356 205 0.744271 0.039409 -0.104568 1
358 205 0.737022 0.104841 -0.103363 1
360 205 0.728326 0.169474 -0.109033 1
362 205 0.716106 0.227969 -0.108950 1
364 205 0.696184 0.278166 -0.099330 1
366 205 0.666487 0.319851 -0.086556 1
368 205 0.629800 0.358584 -0.076130 1
370 205 0.592220 0.398770 -0.066406 1
372 205 0.552733 0.437219 -0.056792 1
374 205 0.513315 0.470020 -0.050166 1
376 205 0.473325 0.495212 -0.043881 1
378 205 0.430250 0.509067 -0.037892 1
380 205 0.387729 0.514964 -0.029776 1
382 205 0.353026 0.511415 -0.016422 1
384 205 0.327099 0.502306 0.000141 1
386 205 0.307224 0.490328 0.011744 1
388 205 0.292431 0.474852 0.022892 1
390 205 0.278235 0.455218 0.036741 1
392 205 0.268970 0.433097 0.044742 1
394 205 0.268449 0.409260 0.043117 1
396 205 0.279417 0.386459 0.034502 1
398 205 0.301686 0.367544 0.023417 1
400 205 0.336152 0.343454 0.020067 1
402 205 0.379023 0.316435 0.020522 1
404 205 0.430256 0.286474 0.019590 1
406 205 0.479223 0.256767 0.016866 1
408 205 0.496533 0.245800 0.018499 1
410 205 0.000000 0.000000 0.000000 0
412 205 0.000000 0.000000 0.000000 0
414 205 0.000000 0.000000 0.000000 0
416 205 0.000000 0.000000 0.000000 0
418 205 0.000000 0.000000 0.000000 0
420 205 0.000000 0.000000 0.000000 0
422 205 0.000000 0.000000 0.000000 0
424 205 0.000000 0.000000 0.000000 0
426 205 0.000000 0.000000 0.000000 0
428 205 0.000000 0.000000 0.000000 0
430 205 0.000000 0.000000 0.000000 0
432 205 0.000000 0.000000 0.000000 0
434 205 0.000000 0.000000 0.000000 0
436 205 0.000000 0.000000 0.000000 0
438 205 0.000000 0.000000 0.000000 0
440 205 0.000000 0.000000 0.000000 0
442 205 0.000000 0.000000 0.000000 0
444 205 0.000000 0.000000 0.000000 0
446 205 0.000000 0.000000 0.000000 0
308 207 0.000000 0.000000 0.000000 0
310 207 0.000000 0.000000 0.000000 0
312 207 0.000000 0.000000 0.000000 0
314 207 0.000000 0.000000 0.000000 0
316 207 0.197359 -0.327054 0.068101 1
318 207 0.233568 -0.407028 0.046244 1
320 207 0.340135 -0.489667 -0.041536 1
322 207 0.444025 -0.542328 -0.097165 1
324 207 0.506555 -0.576196 -0.098158 1
326 207 0.539699 -0.592898 -0.105804 1
328 207 0.553629 -0.595185 -0.126036 1
330 207 0.555828 -0.588780 -0.145863 1
332 207 0.561777 -0.576325 -0.166200 1
334 207 0.575823 -0.558842 -0.188134 1
336 207 0.593804 -0.533189 -0.204870 1
338 207 0.615635 -0.497145 -0.218288 1
340 207 0.638200 -0.453865 -0.229346 1
342 207 0.665812 -0.401787 -0.229346 1
344 207 0.700243 -0.345314 -0.212868 1
346 207 0.734209 -0.287350 -0.189929 1
348 207 0.762358 -0.225432 -0.176348 1
350 207 0.784910 -0.161351 -0.170650 1
352 207 0.798823 -0.096079 -0.156988 1
354 207 0.806395 -0.029731 -0.136256 1
356 207 0.807884 0.038821 -0.118104 1
358 207 0.800686 0.111799 -0.111459 1
360 207 0.789856 0.183868 -0.113835 1
362 207 0.773867 0.247503 -0.113413 1
364 207 0.749337 0.303114 -0.104336 1
366 207 0.715621 0.351411 -0.091272 1
368 207 0.675734 0.397869 -0.079016 1
370 207 0.634023 0.447216 -0.065719 1
372 207 0.592173 0.490697 -0.049818 1
374 207 0.551756 0.524808 -0.032293 1
376 207 0.511013 0.547016 -0.014564 1
378 207 0.466007 0.556255 -0.000300 1
380 207 0.419170 0.558094 0.008264 1
382 207 0.378817 0.551396 0.016512 1
384 207 0.346372 0.538286 0.027826 1
386 207 0.323613 0.521229 0.041772 1
388 207 0.308004 0.498137 0.061219 1
390 207 0.293776 0.471091 0.084176 1
392 207 0.285212 0.441904 0.099146 1
394 207 0.286929 0.410973 0.103081 1
396 207 0.301404 0.381356 0.101683 1
398 207 0.329153 0.352278 0.100358 1
400 207 0.369358 0.316178 0.104845 1
402 207 0.419354 0.273364 0.110690 1
404 207 0.477145 0.229929 0.109562 1
406 207 0.530216 0.191906 0.102060 1
408 207 0.550956 0.180902 0.099260 1
410 207 0.000000 0.000000 0.000000 0
412 207 0.000000 0.000000 0.000000 0
414 207 0.000000 0.000000 0.000000 0
416 207 0.000000 0.000000 0.000000 0
418 207 0.000000 0.000000 0.000000 0
420 207 0.000000 0.000000 0.000000 0
422 207 0.000000 0.000000 0.000000 0
424 207 0.000000 0.000000 0.000000 0
426 207 0.000000 0.000000 0.000000 0
428 207 0.000000 0.000000 0.000000 0
430 207 0.000000 0.000000 0.000000 0
432 207 0.000000 0.000000 0.000000 0
434 207 0.000000 0.000000 0.000000 0
436 207 0.000000 0.000000 0.000000 0
438 207 0.000000 0.000000 0.000000 0
440 207 0.000000 0.000000 0.000000 0
442 207 0.000000 0.000000 0.000000 0
444 207 0.000000 0.000000 0.000000 0
446 207 0.000000 0.000000 0.000000 0
308 209 0.000000 0.000000 0.000000 0
310 209 0.000000 0.000000 0.000000 0
312 209 0.000000 0.000000 0.000000 0
314 209 0.000000 0.000000 0.000000 0
316 209 0.494634 -0.359444 0.118855 1
318 209 0.545192 -0.443985 0.110322 1
320 209 0.665624 -0.528125 0.029880 1
322 209 0.769915 -0.576549 -0.037985 1
324 209 0.818285 -0.601969 -0.061471 1
326 209 0.834562 -0.611045 -0.082281 1
328 209 0.833554 -0.609649 -0.106188 1
330 209 0.820483 -0.604160 -0.127955 1
332 209 0.808467 -0.593024 -0.153971 1
334 209 0.794310 -0.576048 -0.184817 1
336 209 0.787831 -0.550573 -0.205664 1
338 209 0.785758 -0.515156 -0.220857 1
340 209 0.788650 -0.473823 -0.231381 1
342 209 0.800749 -0.424055 -0.230771 1
344 209 0.820095 -0.370111 -0.215924 1
346 209 0.841258 -0.313391 -0.196534 1
348 209 0.855484 -0.250464 -0.189194 1
350 209 0.869191 -0.182299 -0.189975 1
352 209 0.876378 -0.109784 -0.183024 1
354 209 0.880151 -0.034834 -0.165352 1
356 209 0.879697 0.041666 -0.145313 1
358 209 0.870714 0.121891 -0.132548 1
360 209 0.858049 0.199356 -0.129585 1
362 209 0.839419 0.269455 -0.124338 1
364 209 0.811447 0.332083 -0.112684 1
366 209 0.774203 0.388785 -0.097118 1
368 209 0.731315 0.443918 -0.082234 1
370 209 0.686575 0.500339 -0.066127 1
372 209 0.642836 0.547311 -0.044456 1
374 209 0.602080 0.581049 -0.019642 1
376 209 0.561265 0.599969 0.007023 1
378 209 0.515756 0.604965 0.027652 1
380 209 0.467277 0.602463 0.039129 1
382 209 0.424256 0.591343 0.048130 1
384 209 0.389067 0.574445 0.060385 1
386 209 0.365254 0.552212 0.080612 1
388 209 0.350787 0.522764 0.109849 1
390 209 0.339749 0.487473 0.147052 1
392 209 0.335712 0.450775 0.174651 1
394 209 0.343094 0.412954 0.189839 1
396 209 0.363278 0.376523 0.199869 1
398 209 0.394633 0.340670 0.208087 1
400 209 0.437158 0.294383 0.219830 1
402 209 0.487622 0.241980 0.224828 1
404 209 0.543812 0.189658 0.214208 1
406 209 0.594262 0.146687 0.194247 1
408 209 0.615733 0.133747 0.187153 1
410 209 0.000000 0.000000 0.000000 0
412 209 0.000000 0.000000 0.000000 0
414 209 0.000000 0.000000 0.000000 0
416 209 0.000000 0.000000 0.000000 0
418 209 0.000000 0.000000 0.000000 0
420 209 0.000000 0.000000 0.000000 0
422 209 0.000000 0.000000 0.000000 0
424 209 0.000000 0.000000 0.000000 0
426 209 0.000000 0.000000 0.000000 0
428 209 0.000000 0.000000 0.000000 0
430 209 0.000000 0.000000 0.000000 0
432 209 0.000000 0.000000 0.000000 0
434 209 0.000000 0.000000 0.000000 0
436 209 0.000000 0.000000 0.000000 0
438 209 0.000000 0.000000 0.000000 0
440 209 0.000000 0.000000 0.000000 0
442 209 0.000000 0.000000 0.000000 0
444 209 0.000000 0.000000 0.000000 0
446 209 0.000000 0.000000 0.000000 0
308 211 0.000000 0.000000 0.000000 0
310 211 0.000000 0.000000 0.000000 0
312 211 0.000000 0.000000 0.000000 0
314 211 0.000000 0.000000 0.000000 0
316 211 0.864077 -0.408438 0.165334 1
318 211 0.927915 -0.491644 0.164759 1
320 211 1.040740 -0.568242 0.091228 1
322 211 1.125293 -0.605063 0.016947 1
324 211 1.155532 -0.621138 -0.017344 1
326 211 1.158144 -0.623705 -0.036437 1
328 211 1.147531 -0.620372 -0.055410 1
330 211 1.126520 -0.614766 -0.079919 1
332 211 1.099617 -0.602443 -0.119398 1
334 211 1.065393 -0.581844 -0.169205 1
336 211 1.032316 -0.551760 -0.207149 1
338 211 1.008833 -0.513949 -0.229282 1
340 211 0.991172 -0.473727 -0.240236 1
342 211 0.985566 -0.428033 -0.236716 1
344 211 0.987162 -0.379112 -0.222549 1
346 211 0.986700 -0.326666 -0.208380 1
348 211 0.980872 -0.265601 -0.205985 1
350 211 0.974197 -0.196251 -0.211444 1
352 211 0.967035 -0.119464 -0.209089 1
354 211 0.959262 -0.038113 -0.196055 1
356 211 0.952362 0.045147 -0.177326 1
358 211 0.940902 0.130556 -0.161113 1
360 211 0.927971 0.213789 -0.150752 1
362 211 0.909994 0.290233 -0.138198 1
364 211 0.881020 0.361791 -0.119949 1
366 211 0.841576 0.426793 -0.100340 1
368 211 0.796299 0.489208 -0.082587 1
370 211 0.748666 0.550923 -0.064165 1
372 211 0.703495 0.599395 -0.039717 1
374 211 0.662986 0.633000 -0.010887 1
376 211 0.623674 0.650581 0.019451 1
378 211 0.581262 0.652463 0.046043 1
380 211 0.536007 0.645854 0.065360 1
382 211 0.497293 0.629712 0.086927 1
384 211 0.465353 0.608422 0.111591 1
386 211 0.443689 0.583154 0.141594 1
388 211 0.431061 0.548556 0.179949 1
390 211 0.422903 0.507505 0.225412 1
392 211 0.423967 0.463595 0.262900 1
394 211 0.437508 0.418842 0.287971 1
396 211 0.463376 0.375566 0.307547 1
398 211 0.498555 0.332639 0.325562 1
400 211 0.541307 0.279932 0.342845 1
402 211 0.589290 0.220328 0.346642 1
404 211 0.640539 0.162758 0.326875 1
406 211 0.685878 0.114706 0.293555 1
408 211 0.709749 0.099586 0.278618 1
410 211 0.000000 0.000000 0.000000 0
412 211 0.000000 0.000000 0.000000 0
414 211 0.000000 0.000000 0.000000 0
416 211 0.000000 0.000000 0.000000 0
418 211 0.000000 0.000000 0.000000 0
420 211 0.000000 0.000000 0.000000 0
422 211 0.000000 0.000000 0.000000 0
424 211 0.000000 0.000000 0.000000 0
426 211 0.000000 0.000000 0.000000 0
428 211 0.000000 0.000000 0.000000 0
430 211 0.000000 0.000000 0.000000 0
432 211 0.000000 0.000000 0.000000 0
434 211 0.000000 0.000000 0.000000 0
436 211 0.000000 0.000000 0.000000 0
438 211 0.000000 0.000000 0.000000 0
440 211 0.000000 0.000000 0.000000 0
442 211 0.000000 0.000000 0.000000 0
444 211 0.000000 0.000000 0.000000 0
446 211 0.000000 0.000000 0.000000 0
308 213 0.000000 0.000000 0.000000 0
310 213 0.000000 0.000000 0.000000 0
312 213 0.000000 0.000000 0.000000 0
314 213 0.000000 0.000000 0.000000 0
316 213 1.264418 -0.462334 0.188691 1
318 213 1.327337 -0.538626 0.186310 1
320 213 1.413749 -0.602279 0.123123 1
322 213 1.470160 -0.628819 0.056519 1
324 213 1.485227 -0.636482 0.035159 1
326 213 1.487904 -0.634709 0.034992 1
328 213 1.481033 -0.628069 0.029353 1
330 213 1.461627 -0.618119 0.001271 1
332 213 1.431312 -0.599302 -0.052162 1
334 213 1.385861 -0.568889 -0.125042 1
336 213 1.337644 -0.530073 -0.184518 1
338 213 1.294499 -0.485095 -0.224841 1
340 213 1.260813 -0.444069 -0.243682 1
342 213 1.237960 -0.402586 -0.243491 1
344 213 1.219043 -0.360652 -0.233096 1
346 213 1.194489 -0.314992 -0.223997 1
348 213 1.159373 -0.260059 -0.224276 1
350 213 1.128065 -0.193711 -0.229943 1
352 213 1.095008 -0.116936 -0.229441 1
354 213 1.068901 -0.033281 -0.220341 1