TITLE = "B00005"
VARIABLES = "X", "Y", "Vx", "Vy", "Vz", "flag"
ZONE T="B00005", I=70, J=78
308 191 0.000000 0.000000 0.000000 0
310 191 0.000000 0.000000 0.000000 0
312 191 0.000000 0.000000 0.000000 0
314 191 0.000000 0.000000 0.000000 0
316 191 0.000000 0.000000 0.000000 0
318 191 0.000000 0.000000 0.000000 0
320 191 0.000000 0.000000 0.000000 0
322 191 0.000000 0.000000 0.000000 0
324 191 0.000000 0.000000 0.000000 0
326 191 0.000000 0.000000 0.000000 0
328 191 0.000000 0.000000 0.000000 0
330 191 0.000000 0.000000 0.000000 0
332 191 0.000000 0.000000 0.000000 0
334 191 0.000000 0.000000 0.000000 0
336 191 0.000000 0.000000 0.000000 0
338 191 0.000000 0.000000 0.000000 0
340 191 0.000000 0.000000 0.000000 0
342 191 0.000000 0.000000 0.000000 0
344 191 0.000000 0.000000 0.000000 0
346 191 0.000000 0.000000 0.000000 0
348 191 0.000000 0.000000 0.000000 0
350 191 0.000000 0.000000 0.000000 0
352 191 0.000000 0.000000 0.000000 0
354 191 0.000000 0.000000 0.000000 0
356 191 0.000000 0.000000 0.000000 0
358 191 0.000000 0.000000 0.000000 0
360 191 0.000000 0.000000 0.000000 0
362 191 0.000000 0.000000 0.000000 0
364 191 0.000000 0.000000 0.000000 0
366 191 0.000000 0.000000 0.000000 0
368 191 0.000000 0.000000 0.000000 0
370 191 0.000000 0.000000 0.000000 0
372 191 0.000000 0.000000 0.000000 0
374 191 0.000000 0.000000 0.000000 0
376 191 0.000000 0.000000 0.000000 0
378 191 0.000000 0.000000 0.000000 0
380 191 0.000000 0.000000 0.000000 0
382 191 0.000000 0.000000 0.000000 0
384 191 0.000000 0.000000 0.000000 0
386 191 0.000000 0.000000 0.000000 0
388 191 0.000000 0.000000 0.000000 0
390 191 0.000000 0.000000 0.000000 0
392 191 0.000000 0.000000 0.000000 0
394 191 0.000000 0.000000 0.000000 0
396 191 0.000000 0.000000 0.000000 0
398 191 0.000000 0.000000 0.000000 0
400 191 0.000000 0.000000 0.000000 0
402 191 0.000000 0.000000 0.000000 0
404 191 0.000000 0.000000 0.000000 0
406 191 0.000000 0.000000 0.000000 0
408 191 0.000000 0.000000 0.000000 0
410 191 0.000000 0.000000 0.000000 0
412 191 0.000000 0.000000 0.000000 0
414 191 0.000000 0.000000 0.000000 0
416 191 0.000000 0.000000 0.000000 0
418 191 0.000000 0.000000 0.000000 0
420 191 0.000000 0.000000 0.000000 0
422 191 0.000000 0.000000 0.000000 0
424 191 0.000000 0.000000 0.000000 0
426 191 0.000000 0.000000 0.000000 0
428 191 0.000000 0.000000 0.000000 0
430 191 0.000000 0.000000 0.000000 0
432 191 0.000000 0.000000 0.000000 0
434 191 0.000000 0.000000 0.000000 0
436 191 0.000000 0.000000 0.000000 0
438 191 0.000000 0.000000 0.000000 0
440 191 0.000000 0.000000 0.000000 0
442 191 0.000000 0.000000 0.000000 0
444 191 0.000000 0.000000 0.000000 0
446 191 0.000000 0.000000 0.000000 0
308 193 0.000000 0.000000 0.000000 0
310 193 0.000000 0.000000 0.000000 0
312 193 0.000000 0.000000 0.000000 0
314 193 0.000000 0.000000 0.000000 0
316 193 0.000000 0.000000 0.000000 0
318 193 0.000000 0.000000 0.000000 0
320 193 0.000000 0.000000 0.000000 0
322 193 0.000000 0.000000 0.000000 0
324 193 0.000000 0.000000 0.000000 0
326 193 0.000000 0.000000 0.000000 0
328 193 0.000000 0.000000 0.000000 0
330 193 0.000000 0.000000 0.000000 0
332 193 0.000000 0.000000 0.000000 0
334 193 0.000000 0.000000 0.000000 0
336 193 0.000000 0.000000 0.000000 0
338 193 0.000000 0.000000 0.000000 0
340 193 0.000000 0.000000 0.000000 0
342 193 0.000000 0.000000 0.000000 0
344 193 0.000000 0.000000 0.000000 0
346 193 0.000000 0.000000 0.000000 0
348 193 0.000000 0.000000 0.000000 0
350 193 0.000000 0.000000 0.000000 0
352 193 0.000000 0.000000 0.000000 0
354 193 0.000000 0.000000 0.000000 0
356 193 0.000000 0.000000 0.000000 0
358 193 0.000000 0.000000 0.000000 0
360 193 0.000000 0.000000 0.000000 0
362 193 0.000000 0.000000 0.000000 0
364 193 0.000000 0.000000 0.000000 0
366 193 0.000000 0.000000 0.000000 0
368 193 0.000000 0.000000 0.000000 0
370 193 0.000000 0.000000 0.000000 0
372 193 0.000000 0.000000 0.000000 0
374 193 0.000000 0.000000 0.000000 0
376 193 0.000000 0.000000 0.000000 0
378 193 0.000000 0.000000 0.000000 0
380 193 0.000000 0.000000 0.000000 0
382 193 0.000000 0.000000 0.000000 0
384 193 0.000000 0.000000 0.000000 0
386 193 0.000000 0.000000 0.000000 0
388 193 0.000000 0.000000 0.000000 0
390 193 0.000000 0.000000 0.000000 0
392 193 0.000000 0.000000 0.000000 0
394 193 0.000000 0.000000 0.000000 0
396 193 0.000000 0.000000 0.000000 0
398 193 0.000000 0.000000 0.000000 0
400 193 0.000000 0.000000 0.000000 0
402 193 0.000000 0.000000 0.000000 0
404 193 0.000000 0.000000 0.000000 0
406 193 0.000000 0.000000 0.000000 0
408 193 0.000000 0.000000 0.000000 0
410 193 0.000000 0.000000 0.000000 0
412 193 0.000000 0.000000 0.000000 0
414 193 0.000000 0.000000 0.000000 0
416 193 0.000000 0.000000 0.000000 0
418 193 0.000000 0.000000 0.000000 0
420 193 0.000000 0.000000 0.000000 0
422 193 0.000000 0.000000 0.000000 0
424 193 0.000000 0.000000 0.000000 0
426 193 0.000000 0.000000 0.000000 0
428 193 0.000000 0.000000 0.000000 0
430 193 0.000000 0.000000 0.000000 0
432 193 0.000000 0.000000 0.000000 0
434 193 0.000000 0.000000 0.000000 0
436 193 0.000000 0.000000 0.000000 0
438 193 0.000000 0.000000 0.000000 0
440 193 0.000000 0.000000 0.000000 0
442 193 0.000000 0.000000 0.000000 0
444 193 0.000000 0.000000 0.000000 0
446 193 0.000000 0.000000 0.000000 0
308 195 0.000000 0.000000 0.000000 0
310 195 0.000000 0.000000 0.000000 0
312 195 0.000000 0.000000 0.000000 0
314 195 0.000000 0.000000 0.000000 0
316 195 0.000000 0.000000 0.000000 0
318 195 0.000000 0.000000 0.000000 0
320 195 0.000000 0.000000 0.000000 0
322 195 0.000000 0.000000 0.000000 0
324 195 0.000000 0.000000 0.000000 0
326 195 0.000000 0.000000 0.000000 0
328 195 0.000000 0.000000 0.000000 0
330 195 0.000000 0.000000 0.000000 0
332 195 0.000000 0.000000 0.000000 0
334 195 0.000000 0.000000 0.000000 0
336 195 0.000000 0.000000 0.000000 0
338 195 0.000000 0.000000 0.000000 0
340 195 0.000000 0.000000 0.000000 0
342 195 0.000000 0.000000 0.000000 0
344 195 0.000000 0.000000 0.000000 0
346 195 0.000000 0.000000 0.000000 0
348 195 0.000000 0.000000 0.000000 0
350 195 0.000000 0.000000 0.000000 0
352 195 0.000000 0.000000 0.000000 0
354 195 0.000000 0.000000 0.000000 0
356 195 0.000000 0.000000 0.000000 0
358 195 0.000000 0.000000 0.000000 0
360 195 0.000000 0.000000 0.000000 0
362 195 0.000000 0.000000 0.000000 0
364 195 0.000000 0.000000 0.000000 0
366 195 0.000000 0.000000 0.000000 0
368 195 0.000000 0.000000 0.000000 0
370 195 0.000000 0.000000 0.000000 0
372 195 0.000000 0.000000 0.000000 0
374 195 0.000000 0.000000 0.000000 0
376 195 0.000000 0.000000 0.000000 0
378 195 0.000000 0.000000 0.000000 0
380 195 0.000000 0.000000 0.000000 0
382 195 0.000000 0.000000 0.000000 0
384 195 0.000000 0.000000 0.000000 0
386 195 0.000000 0.000000 0.000000 0
388 195 0.000000 0.000000 0.000000 0
390 195 0.000000 0.000000 0.000000 0
392 195 0.000000 0.000000 0.000000 0
394 195 0.000000 0.000000 0.000000 0
396 195 0.000000 0.000000 0.000000 0
398 195 0.000000 0.000000 0.000000 0
400 195 0.000000 0.000000 0.000000 0
402 195 0.000000 0.000000 0.000000 0
404 195 0.000000 0.000000 0.000000 0
406 195 0.000000 0.000000 0.000000 0
408 195 0.000000 0.000000 0.000000 0
410 195 0.000000 0.000000 0.000000 0
412 195 0.000000 0.000000 0.000000 0
414 195 0.000000 0.000000 0.000000 0
416 195 0.000000 0.000000 0.000000 0
418 195 0.000000 0.000000 0.000000 0
420 195 0.000000 0.000000 0.000000 0
422 195 0.000000 0.000000 0.000000 0
424 195 0.000000 0.000000 0.000000 0
426 195 0.000000 0.000000 0.000000 0
428 195 0.000000 0.000000 0.000000 0
430 195 0.000000 0.000000 0.000000 0
432 195 0.000000 0.000000 0.000000 0
434 195 0.000000 0.000000 0.000000 0
436 195 0.000000 0.000000 0.000000 0
438 195 0.000000 0.000000 0.000000 0
440 195 0.000000 0.000000 0.000000 0
442 195 0.000000 0.000000 0.000000 0
444 195 0.000000 0.000000 0.000000 0
446 195 0.000000 0.000000 0.000000 0
308 197 0.000000 0.000000 0.000000 0
310 197 0.000000 0.000000 0.000000 0
312 197 0.000000 0.000000 0.000000 0
314 197 0.000000 0.000000 0.000000 0
316 197 0.000000 0.000000 0.000000 0
318 197 -0.086591 -0.204953 -0.103533 1
320 197 -0.047630 -0.223436 -0.089735 1
322 197 -0.000310 -0.263002 -0.080790 1
324 197 0.039299 -0.290981 -0.062239 1
326 197 0.075985 -0.308533 -0.057953 1
328 197 0.113519 -0.313887 -0.073365 1
330 197 0.154862 -0.310767 -0.085439 1
332 197 0.203245 -0.303306 -0.100296 1
334 197 0.252699 -0.294179 -0.124425 1
336 197 0.300769 -0.283003 -0.140068 1
338 197 0.346512 -0.269951 -0.139459 1
340 197 0.383374 -0.252725 -0.130960 1
342 197 0.402731 -0.226367 -0.121841 1
344 197 0.409706 -0.191778 -0.117422 1
346 197 0.415808 -0.155396 -0.120079 1
348 197 0.435897 -0.120101 -0.130392 1
350 197 0.467957 -0.087334 -0.138947 1
352 197 0.500429 -0.055466 -0.136436 1
354 197 0.522527 -0.022187 -0.127270 1
356 197 0.532795 0.011109 -0.119789 1
358 197 0.529995 0.045578 -0.117878 1
360 197 0.521807 0.080088 -0.122341 1
362 197 0.510336 0.116893 -0.132113 1
364 197 0.499363 0.155930 -0.133409 1
366 197 0.492746 0.192837 -0.118610 1
368 197 0.490890 0.226937 -0.094075 1
370 197 0.491271 0.260016 -0.070407 1
372 197 0.482471 0.287017 -0.057625 1
374 197 0.464879 0.308679 -0.054859 1
376 197 0.439570 0.325148 -0.058563 1
378 197 0.407445 0.336392 -0.064062 1
380 197 0.374747 0.345799 -0.069230 1
382 197 0.347868 0.355270 -0.072197 1
384 197 0.326536 0.367285 -0.073020 1
386 197 0.309238 0.380451 -0.068515 1
388 197 0.294696 0.386713 -0.056222 1
390 197 0.280714 0.387103 -0.040380 1
392 197 0.269736 0.385883 -0.030762 1
394 197 0.260623 0.386217 -0.032369 1
396 197 0.249534 0.391216 -0.045723 1
398 197 0.240323 0.401918 -0.067286 1
400 197 0.237085 0.413809 -0.089318 1
402 197 0.238526 0.419758 -0.097740 1
404 197 0.260508 0.414463 -0.075519 1
406 197 0.000000 0.000000 0.000000 0
408 197 0.000000 0.000000 0.000000 0
410 197 0.000000 0.000000 0.000000 0
412 197 0.000000 0.000000 0.000000 0
414 197 0.000000 0.000000 0.000000 0
416 197 0.000000 0.000000 0.000000 0
418 197 0.000000 0.000000 0.000000 0
420 197 0.000000 0.000000 0.000000 0
422 197 0.000000 0.000000 0.000000 0
424 197 0.000000 0.000000 0.000000 0
426 197 0.000000 0.000000 0.000000 0
428 197 0.000000 0.000000 0.000000 0
430 197 0.000000 0.000000 0.000000 0
432 197 0.000000 0.000000 0.000000 0
434 197 0.000000 0.000000 0.000000 0
436 197 0.000000 0.000000 0.000000 0
438 197 0.000000 0.000000 0.000000 0
440 197 0.000000 0.000000 0.000000 0
442 197 0.000000 0.000000 0.000000 0
444 197 0.000000 0.000000 0.000000 0
446 197 0.000000 0.000000 0.000000 0
308 199 0.000000 0.000000 0.000000 0
310 199 0.000000 0.000000 0.000000 0
312 199 0.000000 0.000000 0.000000 0
314 199 0.000000 0.000000 0.000000 0
316 199 -0.151021 -0.170744 -0.115613 1
318 199 -0.117080 -0.209820 -0.107816 1
320 199 -0.066184 -0.272551 -0.109946 1
322 199 -0.018584 -0.318595 -0.115194 1
324 199 0.018620 -0.354785 -0.106100 1
326 199 0.053632 -0.380085 -0.107128 1
328 199 0.090737 -0.392230 -0.128919 1
330 199 0.134704 -0.390514 -0.147202 1
332 199 0.190436 -0.380739 -0.162429 1
334 199 0.253904 -0.366466 -0.177627 1
336 199 0.316270 -0.350062 -0.182206 1
338 199 0.377851 -0.331189 -0.172233 1
340 199 0.427670 -0.309564 -0.159991 1
342 199 0.461410 -0.278790 -0.149898 1
344 199 0.481846 -0.239596 -0.145605 1
346 199 0.497333 -0.198085 -0.148421 1
348 199 0.518210 -0.155981 -0.157527 1
350 199 0.543518 -0.116664 -0.163678 1
352 199 0.564478 -0.076687 -0.156668 1
354 199 0.579441 -0.036075 -0.143845 1
356 199 0.586841 0.005243 -0.133954 1
358 199 0.585003 0.047409 -0.130894 1
360 199 0.578759 0.088410 -0.134163 1
362 199 0.568578 0.130651 -0.140285 1
364 199 0.556700 0.172923 -0.137321 1
366 199 0.545769 0.211913 -0.119150 1
368 199 0.537202 0.246801 -0.094505 1
370 199 0.529363 0.280679 -0.072564 1
372 199 0.512808 0.309510 -0.062811 1
374 199 0.489088 0.333984 -0.063536 1
376 199 0.458452 0.354801 -0.071247 1
378 199 0.423125 0.369251 -0.077426 1
380 199 0.388296 0.380650 -0.077273 1
382 199 0.360682 0.390054 -0.070690 1
384 199 0.339276 0.401006 -0.062143 1
386 199 0.321792 0.412663 -0.055016 1
388 199 0.306950 0.417221 -0.043983 1
390 199 0.292916 0.414474 -0.028908 1
392 199 0.282461 0.409226 -0.016724 1
394 199 0.274830 0.404252 -0.012999 1
396 199 0.266458 0.404299 -0.021549 1
398 199 0.261121 0.410038 -0.039686 1
400 199 0.263437 0.416790 -0.060294 1
402 199 0.271583 0.421165 -0.073210 1
404 199 0.284829 0.416608 -0.074437 1
406 199 0.303156 0.407683 -0.068652 1
408 199 0.000000 0.000000 0.000000 0
410 199 0.000000 0.000000 0.000000 0
412 199 0.000000 0.000000 0.000000 0
414 199 0.000000 0.000000 0.000000 0
416 199 0.000000 0.000000 0.000000 0
418 199 0.000000 0.000000 0.000000 0
420 199 0.000000 0.000000 0.000000 0
422 199 0.000000 0.000000 0.000000 0
424 199 0.000000 0.000000 0.000000 0
426 199 0.000000 0.000000 0.000000 0
428 199 0.000000 0.000000 0.000000 0
430 199 0.000000 0.000000 0.000000 0
432 199 0.000000 0.000000 0.000000 0
434 199 0.000000 0.000000 0.000000 0
436 199 0.000000 0.000000 0.000000 0
438 199 0.000000 0.000000 0.000000 0
440 199 0.000000 0.000000 0.000000 0
442 199 0.000000 0.000000 0.000000 0
444 199 0.000000 0.000000 0.000000 0
446 199 0.000000 0.000000 0.000000 0
308 201 0.000000 0.000000 0.000000 0
310 201 0.000000 0.000000 0.000000 0
312 201 0.000000 0.000000 0.000000 0
314 201 0.000000 0.000000 0.000000 0
316 201 -0.156137 -0.198970 -0.079385 1
318 201 -0.127917 -0.254058 -0.086521 1
320 201 -0.071754 -0.323385 -0.122906 1
322 201 -0.019008 -0.373759 -0.150816 1
324 201 0.021927 -0.414399 -0.141828 1
326 201 0.061486 -0.448609 -0.133408 1
328 201 0.100555 -0.468235 -0.148294 1
330 201 0.143164 -0.470042 -0.166735 1
332 201 0.199405 -0.460077 -0.184787 1
334 201 0.266567 -0.443745 -0.201443 1
336 201 0.335643 -0.422905 -0.206249 1
338 201 0.402385 -0.398556 -0.197929 1
340 201 0.458871 -0.369634 -0.188695 1
342 201 0.501466 -0.332719 -0.180029 1
344 201 0.534524 -0.287601 -0.173531 1
346 201 0.562020 -0.240536 -0.170535 1
348 201 0.588023 -0.192233 -0.172434 1
350 201 0.610294 -0.145056 -0.173331 1
352 201 0.625077 -0.097808 -0.163617 1
354 201 0.634928 -0.048847 -0.149238 1
356 201 0.640848 -0.000048 -0.138703 1
358 201 0.639711 0.050085 -0.135921 1
360 201 0.635238 0.098179 -0.138813 1
362 201 0.626665 0.145160 -0.141256 1
364 201 0.614635 0.190781 -0.132790 1
366 201 0.600478 0.231443 -0.112747 1
368 201 0.584466 0.267907 -0.090984 1
370 201 0.568356 0.303696 -0.073330 1
372 201 0.543896 0.336044 -0.067662 1
374 201 0.513308 0.365171 -0.072154 1
376 201 0.477460 0.390947 -0.082905 1
378 201 0.437697 0.409636 -0.090010 1
380 201 0.400650 0.422664 -0.086148 1
382 201 0.372388 0.430961 -0.070349 1
384 201 0.351201 0.439271 -0.053146 1
386 201 0.333434 0.448136 -0.043637 1
388 201 0.317988 0.450460 -0.034508 1
390 201 0.303393 0.445351 -0.020788 1
392 201 0.293121 0.435616 -0.006778 1
394 201 0.287039 0.425211 0.001025 1
396 201 0.282886 0.417917 -0.002982 1
398 201 0.282574 0.416326 -0.017814 1
400 201 0.290204 0.415515 -0.037261 1
402 201 0.304966 0.414759 -0.054897 1
404 201 0.326020 0.408598 -0.066653 1
406 201 0.349041 0.396717 -0.072846 1
408 201 0.383453 0.377759 -0.070260 1
410 201 0.000000 0.000000 0.000000 0
412 201 0.000000 0.000000 0.000000 0
414 201 0.000000 0.000000 0.000000 0
416 201 0.000000 0.000000 0.000000 0
418 201 0.000000 0.000000 0.000000 0
420 201 0.000000 0.000000 0.000000 0
422 201 0.000000 0.000000 0.000000 0
424 201 0.000000 0.000000 0.000000 0
426 201 0.000000 0.000000 0.000000 0
428 201 0.000000 0.000000 0.000000 0
430 201 0.000000 0.000000 0.000000 0
432 201 0.000000 0.000000 0.000000 0
434 201 0.000000 0.000000 0.000000 0
436 201 0.000000 0.000000 0.000000 0
438 201 0.000000 0.000000 0.000000 0
440 201 0.000000 0.000000 0.000000 0
442 201 0.000000 0.000000 0.000000 0
444 201 0.000000 0.000000 0.000000 0
446 201 0.000000 0.000000 0.000000 0
308 203 0.000000 0.000000 0.000000 0
310 203 0.000000 0.000000 0.000000 0
312 203 0.000000 0.000000 0.000000 0
314 203 0.000000 0.000000 0.000000 0
316 203 -0.119449 -0.233114 -0.019704 1
318 203 -0.093158 -0.297582 -0.039648 1
320 203 -0.027851 -0.373978 -0.110529 1
322 203 0.036342 -0.426908 -0.164780 1
324 203 0.086830 -0.470588 -0.155486 1
326 203 0.132314 -0.508392 -0.138582 1
328 203 0.172452 -0.531589 -0.144471 1
330 203 0.208790 -0.534384 -0.161193 1
332 203 0.255687 -0.525103 -0.180127 1
334 203 0.314574 -0.509583 -0.198830 1
336 203 0.376729 -0.488077 -0.207215 1
338 203 0.436338 -0.459515 -0.205648 1
340 203 0.488379 -0.424610 -0.204302 1
342 203 0.531631 -0.379859 -0.203177 1
344 203 0.570614 -0.329182 -0.197895 1
346 203 0.607169 -0.277291 -0.188866 1
348 203 0.639689 -0.224079 -0.180347 1
350 203 0.664411 -0.171217 -0.173748 1
352 203 0.678462 -0.116815 -0.161073 1
354 203 0.687314 -0.061423 -0.146674 1
356 203 0.692701 -0.004904 -0.136714 1
358 203 0.691536 0.052431 -0.135002 1
360 203 0.687617 0.107687 -0.138784 1
362 203 0.679923 0.159449 -0.138357 1
364 203 0.667745 0.207750 -0.125651 1
366 203 0.650374 0.250586 -0.104741 1
368 203 0.628846 0.289498 -0.086157 1
370 203 0.604921 0.329314 -0.072929 1
372 203 0.574451 0.366374 -0.068877 1
374 203 0.538730 0.400693 -0.073361 1
376 203 0.498494 0.431059 -0.082693 1
378 203 0.455125 0.452416 -0.088273 1
380 203 0.414775 0.466530 -0.082135 1
382 203 0.384817 0.473527 -0.062644 1
384 203 0.362555 0.478123 -0.039756 1
386 203 0.343822 0.482933 -0.026661 1
388 203 0.327264 0.481707 -0.016068 1
390 203 0.311080 0.473250 -0.001632 1
392 203 0.299763 0.459779 0.012792 1
394 203 0.294874 0.442858 0.021675 1
396 203 0.295306 0.428291 0.019004 1
398 203 0.302330 0.417192 0.006474 1
400 203 0.316460 0.406007 -0.010344 1
402 203 0.337477 0.394556 -0.027095 1
404 203 0.367188 0.380031 -0.042981 1
406 203 0.398880 0.362697 -0.053179 1
408 203 0.411349 0.351950 -0.050313 1
410 203 0.000000 0.000000 0.000000 0
412 203 0.000000 0.000000 0.000000 0
414 203 0.000000 0.000000 0.000000 0
416 203 0.000000 0.000000 0.000000 0
418 203 0.000000 0.000000 0.000000 0
420 203 0.000000 0.000000 0.000000 0
422 203 0.000000 0.000000 0.000000 0
424 203 0.000000 0.000000 0.000000 0
426 203 0.000000 0.000000 0.000000 0
428 203 0.000000 0.000000 0.000000 0
430 203 0.000000 0.000000 0.000000 0
432 203 0.000000 0.000000 0.000000 0
434 203 0.000000 0.000000 0.000000 0
436 203 0.000000 0.000000 0.000000 0
438 203 0.000000 0.000000 0.000000 0
440 203 0.000000 0.000000 0.000000 0
442 203 0.000000 0.000000 0.000000 0
444 203 0.000000 0.000000 0.000000 0
446 203 0.000000 0.000000 0.000000 0
308 205 0.000000 0.000000 0.000000 0
310 205 0.000000 0.000000 0.000000 0
312 205 0.000000 0.000000 0.000000 0
314 205 0.000000 0.000000 0.000000 0
316 205 -0.002146 -0.257738 0.036968 1
318 205 0.027342 -0.337235 0.028451 1
320 205 0.109775 -0.423721 -0.063166 1
322 205 0.191305 -0.480734 -0.139358 1
324 205 0.249491 -0.526569 -0.136745 1
326 205 0.293854 -0.561585 -0.124582 1
328 205 0.327680 -0.579990 -0.132980 1
330 205 0.350565 -0.579538 -0.150318 1
332 205 0.382794 -0.570299 -0.168515 1
334 205 0.422977 -0.557123 -0.187014 1
336 205 0.467080 -0.537697 -0.197161 1
338 205 0.509603 -0.509188 -0.200850 1
340 205 0.546794 -0.471656 -0.208490 1
342 205 0.582096 -0.423129 -0.215677 1
344 205 0.617113 -0.368458 -0.216269 1
346 205 0.653741 -0.313421 -0.206337 1
348 205 0.688136 -0.256375 -0.191523 1
350 205 0.716459 -0.198326 -0.178574 1
352 205 0.733621 -0.137845 -0.162961 1
354 205 0.744054 -0.075026 -0.147758 1
356 205 0.749332 -0.011712 -0.137557 1
358 205 0.746711 0.054019 -0.136273 1
360 205 0.741506 0.116209 -0.140974 1
362 205 0.732595 0.173425 -0.139288 1
364 205 0.718614 0.225693 -0.124822 1
366 205 0.697985 0.272373 -0.104707 1
368 205 0.671072 0.316986 -0.088441 1
370 205 0.641857 0.362494 -0.075791 1
372 205 0.607291 0.405700 -0.067039 1
374 205 0.569520 0.443932 -0.064004 1
376 205 0.527737 0.475787 -0.063519 1
378 205 0.481624 0.496846 -0.062733 1
380 205 0.437228 0.510120 -0.056097 1
382 205 0.401723 0.515093 -0.039960 1
384 205 0.375516 0.516410 -0.018315 1
386 205 0.354079 0.515791 -0.002328 1
388 205 0.336120 0.509164 0.013410 1
390 205 0.318040 0.495333 0.032785 1
392 205 0.304921 0.476118 0.049243 1
394 205 0.300066 0.453001 0.058590 1
396 205 0.304677 0.429752 0.058571 1
398 205 0.318201 0.409907 0.050153 1
400 205 0.340425 0.386231 0.040305 1
402 205 0.369053 0.360837 0.029025 1
404 205 0.406891 0.333117 0.016802 1
406 205 0.446354 0.305150 0.008577 1
408 205 0.461166 0.295017 0.009391 1
410 205 0.000000 0.000000 0.000000 0
412 205 0.000000 0.000000 0.000000 0
414 205 0.000000 0.000000 0.000000 0
416 205 0.000000 0.000000 0.000000 0
418 205 0.000000 0.000000 0.000000 0
420 205 0.000000 0.000000 0.000000 0
422 205 0.000000 0.000000 0.000000 0
424 205 0.000000 0.000000 0.000000 0
426 205 0.000000 0.000000 0.000000 0
428 205 0.000000 0.000000 0.000000 0
430 205 0.000000 0.000000 0.000000 0
432 205 0.000000 0.000000 0.000000 0
434 205 0.000000 0.000000 0.000000 0
436 205 0.000000 0.000000 0.000000 0
438 205 0.000000 0.000000 0.000000 0
440 205 0.000000 0.000000 0.000000 0
442 205 0.000000 0.000000 0.000000 0
444 205 0.000000 0.000000 0.000000 0
446 205 0.000000 0.000000 0.000000 0
308 207 0.000000 0.000000 0.000000 0
310 207 0.000000 0.000000 0.000000 0
312 207 0.000000 0.000000 0.000000 0
314 207 0.000000 0.000000 0.000000 0
316 207 0.188723 -0.278977 0.080909 1
318 207 0.222803 -0.373706 0.096933 1
320 207 0.325777 -0.469401 0.006354 1
322 207 0.427497 -0.531926 -0.080226 1
324 207 0.488699 -0.577986 -0.090187 1
326 207 0.525261 -0.606848 -0.092541 1
328 207 0.546340 -0.616345 -0.111610 1
330 207 0.556682 -0.612252 -0.132865 1
332 207 0.571048 -0.602213 -0.154313 1
334 207 0.591245 -0.589971 -0.177158 1
336 207 0.611390 -0.572340 -0.191654 1
338 207 0.631538 -0.545723 -0.199551 1
340 207 0.649543 -0.509766 -0.210920 1
342 207 0.669517 -0.461531 -0.222684 1
344 207 0.694816 -0.406558 -0.227062 1
346 207 0.723117 -0.350199 -0.220231 1
348 207 0.753252 -0.290522 -0.205812 1
350 207 0.780709 -0.227704 -0.192105 1
352 207 0.799417 -0.160821 -0.175958 1
354 207 0.810857 -0.091132 -0.160120 1
356 207 0.815653 -0.019685 -0.148298 1
358 207 0.811083 0.053345 -0.145252 1
360 207 0.803159 0.123626 -0.148664 1
362 207 0.792069 0.186963 -0.145477 1
364 207 0.775294 0.245225 -0.130522 1
366 207 0.750853 0.298399 -0.112063 1
368 207 0.719833 0.350163 -0.097011 1
370 207 0.685423 0.404040 -0.082731 1
372 207 0.647979 0.452582 -0.067208 1
374 207 0.609058 0.493663 -0.051744 1
376 207 0.566739 0.524688 -0.038234 1
378 207 0.518684 0.543258 -0.027780 1
380 207 0.469180 0.554144 -0.019899 1
382 207 0.426822 0.556919 -0.008854 1
384 207 0.392901 0.554698 0.005787 1
386 207 0.367968 0.549291 0.021118 1
388 207 0.348864 0.535897 0.042044 1
390 207 0.330350 0.515490 0.069062 1
392 207 0.316988 0.489756 0.091889 1
394 207 0.312981 0.459744 0.106094 1
396 207 0.320184 0.430204 0.112079 1
398 207 0.339052 0.401574 0.112834 1
400 207 0.367310 0.367935 0.112066 1
402 207 0.403139 0.328713 0.108935 1
404 207 0.447534 0.287863 0.100229 1
406 207 0.491740 0.250737 0.091272 1
408 207 0.510174 0.239609 0.090022 1
410 207 0.000000 0.000000 0.000000 0
412 207 0.000000 0.000000 0.000000 0
414 207 0.000000 0.000000 0.000000 0
416 207 0.000000 0.000000 0.000000 0
418 207 0.000000 0.000000 0.000000 0
420 207 0.000000 0.000000 0.000000 0
422 207 0.000000 0.000000 0.000000 0
424 207 0.000000 0.000000 0.000000 0
426 207 0.000000 0.000000 0.000000 0
428 207 0.000000 0.000000 0.000000 0
430 207 0.000000 0.000000 0.000000 0
432 207 0.000000 0.000000 0.000000 0
434 207 0.000000 0.000000 0.000000 0
436 207 0.000000 0.000000 0.000000 0
438 207 0.000000 0.000000 0.000000 0
440 207 0.000000 0.000000 0.000000 0
442 207 0.000000 0.000000 0.000000 0
444 207 0.000000 0.000000 0.000000 0
446 207 0.000000 0.000000 0.000000 0
308 209 0.000000 0.000000 0.000000 0
310 209 0.000000 0.000000 0.000000 0
312 209 0.000000 0.000000 0.000000 0
314 209 0.000000 0.000000 0.000000 0
316 209 0.485441 -0.308636 0.119310 1
318 209 0.533012 -0.409664 0.153696 1
320 209 0.651854 -0.509943 0.082785 1
322 209 0.758854 -0.571029 -0.003823 1
324 209 0.812140 -0.611091 -0.028613 1
326 209 0.835440 -0.632075 -0.044681 1
328 209 0.843188 -0.636089 -0.070282 1
330 209 0.840589 -0.630541 -0.097526 1
332 209 0.840424 -0.619219 -0.128995 1
334 209 0.835743 -0.604423 -0.167166 1
336 209 0.831650 -0.585148 -0.191598 1
338 209 0.826141 -0.558636 -0.204973 1
340 209 0.821773 -0.525633 -0.215142 1
342 209 0.823499 -0.481266 -0.224101 1
344 209 0.831654 -0.430163 -0.228226 1
346 209 0.845933 -0.375708 -0.224432 1
348 209 0.860856 -0.315657 -0.215934 1
350 209 0.877600 -0.250146 -0.206999 1
352 209 0.887361 -0.178709 -0.194482 1
354 209 0.892697 -0.103367 -0.179871 1
356 209 0.893343 -0.025884 -0.167109 1
358 209 0.885226 0.054346 -0.160723 1
360 209 0.875138 0.131130 -0.160220 1
362 209 0.862380 0.202196 -0.152950 1
364 209 0.843053 0.267827 -0.137163 1
366 209 0.815033 0.329294 -0.119572 1
368 209 0.780282 0.389729 -0.104436 1
370 209 0.742081 0.451026 -0.087936 1
372 209 0.701902 0.504334 -0.065097 1
374 209 0.662248 0.546438 -0.040104 1
376 209 0.619695 0.575778 -0.014896 1
378 209 0.570587 0.591619 0.004085 1
380 209 0.517817 0.599719 0.016228 1
382 209 0.470005 0.599238 0.027544 1
384 209 0.430746 0.593472 0.040363 1
386 209 0.403147 0.582468 0.055963 1
388 209 0.384658 0.563077 0.080752 1
390 209 0.368503 0.535442 0.116764 1
392 209 0.357936 0.503154 0.149265 1
394 209 0.357394 0.467176 0.172423 1
396 209 0.368640 0.432212 0.187892 1
398 209 0.390931 0.398385 0.197871 1
400 209 0.423240 0.356475 0.208424 1
402 209 0.461919 0.308312 0.211576 1
404 209 0.507395 0.257743 0.202618 1
406 209 0.551145 0.214456 0.187301 1
408 209 0.570942 0.201154 0.183039 1
410 209 0.000000 0.000000 0.000000 0
412 209 0.000000 0.000000 0.000000 0
414 209 0.000000 0.000000 0.000000 0
416 209 0.000000 0.000000 0.000000 0
418 209 0.000000 0.000000 0.000000 0
420 209 0.000000 0.000000 0.000000 0
422 209 0.000000 0.000000 0.000000 0
424 209 0.000000 0.000000 0.000000 0
426 209 0.000000 0.000000 0.000000 0
428 209 0.000000 0.000000 0.000000 0
430 209 0.000000 0.000000 0.000000 0
432 209 0.000000 0.000000 0.000000 0
434 209 0.000000 0.000000 0.000000 0
436 209 0.000000 0.000000 0.000000 0
438 209 0.000000 0.000000 0.000000 0
440 209 0.000000 0.000000 0.000000 0
442 209 0.000000 0.000000 0.000000 0
444 209 0.000000 0.000000 0.000000 0
446 209 0.000000 0.000000 0.000000 0
308 211 0.000000 0.000000 0.000000 0
310 211 0.000000 0.000000 0.000000 0
312 211 0.000000 0.000000 0.000000 0
314 211 0.000000 0.000000 0.000000 0
316 211 0.852265 -0.358668 0.163965 1
318 211 0.912345 -0.458601 0.204700 1
320 211 1.024814 -0.553330 0.147759 1
322 211 1.115947 -0.605185 0.067242 1
324 211 1.155804 -0.636524 0.034505 1
326 211 1.169980 -0.650308 0.017114 1
328 211 1.171054 -0.651424 -0.004674 1
330 211 1.162884 -0.644501 -0.034676 1
332 211 1.151399 -0.629682 -0.080444 1
334 211 1.129921 -0.609236 -0.138343 1
336 211 1.100973 -0.583337 -0.184898 1
338 211 1.073533 -0.553036 -0.211761 1
340 211 1.047108 -0.520129 -0.227118 1
342 211 1.029652 -0.479814 -0.233391 1
344 211 1.020303 -0.434073 -0.234666 1
346 211 1.014447 -0.384454 -0.231678 1
348 211 1.010010 -0.326969 -0.227159 1
350 211 1.003833 -0.262255 -0.223645 1
352 211 0.995056 -0.189757 -0.214757 1
354 211 0.984023 -0.112056 -0.202442 1
356 211 0.974323 -0.030669 -0.189930 1
358 211 0.961163 0.054374 -0.181088 1
360 211 0.949688 0.138187 -0.174863 1
362 211 0.937624 0.216557 -0.162016 1
364 211 0.917682 0.291249 -0.142245 1
366 211 0.887436 0.360869 -0.123005 1
368 211 0.849846 0.429210 -0.106298 1
370 211 0.808045 0.497148 -0.087740 1
372 211 0.765434 0.553486 -0.061656 1
374 211 0.724892 0.596679 -0.030999 1
376 211 0.682973 0.625430 -0.000093 1
378 211 0.635761 0.639364 0.027060 1
380 211 0.584338 0.644887 0.047895 1
382 211 0.537946 0.640647 0.070361 1
384 211 0.498769 0.630623 0.092262 1
386 211 0.472127 0.615626 0.113601 1
388 211 0.455602 0.590762 0.141701 1
390 211 0.442288 0.558119 0.181336 1
392 211 0.435033 0.519908 0.220378 1
394 211 0.437704 0.478327 0.251174 1
396 211 0.452124 0.438207 0.274574 1
398 211 0.477749 0.399275 0.294078 1
400 211 0.512298 0.352292 0.313281 1
402 211 0.552264 0.297084 0.323822 1
404 211 0.596116 0.240328 0.314955 1
406 211 0.637499 0.191165 0.293404 1
408 211 0.660573 0.175586 0.282875 1
410 211 0.000000 0.000000 0.000000 0
412 211 0.000000 0.000000 0.000000 0
414 211 0.000000 0.000000 0.000000 0
416 211 0.000000 0.000000 0.000000 0
418 211 0.000000 0.000000 0.000000 0
420 211 0.000000 0.000000 0.000000 0
422 211 0.000000 0.000000 0.000000 0
424 211 0.000000 0.000000 0.000000 0
426 211 0.000000 0.000000 0.000000 0
428 211 0.000000 0.000000 0.000000 0
430 211 0.000000 0.000000 0.000000 0
432 211 0.000000 0.000000 0.000000 0
434 211 0.000000 0.000000 0.000000 0
436 211 0.000000 0.000000 0.000000 0
438 211 0.000000 0.000000 0.000000 0
440 211 0.000000 0.000000 0.000000 0
442 211 0.000000 0.000000 0.000000 0
444 211 0.000000 0.000000 0.000000 0
446 211 0.000000 0.000000 0.000000 0
308 213 0.000000 0.000000 0.000000 0
310 213 0.000000 0.000000 0.000000 0
312 213 0.000000 0.000000 0.000000 0
314 213 0.000000 0.000000 0.000000 0
316 213 1.249462 -0.418187 0.197677 1
318 213 1.308606 -0.509990 0.230533 1
320 213 1.396074 -0.592115 0.183183 1
322 213 1.460104 -0.633901 0.111419 1
324 213 1.486476 -0.655431 0.082403 1
326 213 1.502573 -0.664265 0.076906 1
328 213 1.509565 -0.662766 0.069279 1
330 213 1.504435 -0.652046 0.040671 1
332 213 1.490783 -0.630158 -0.012304 1
334 213 1.460547 -0.598852 -0.082942 1
336 213 1.419411 -0.562999 -0.145897 1
338 213 1.374370 -0.523237 -0.194196 1
340 213 1.332401 -0.487135 -0.224467 1
342 213 1.298393 -0.448909 -0.238959 1
344 213 1.271529 -0.408889 -0.241613 1
346 213 1.246183 -0.365383 -0.238829 1
348 213 1.215985 -0.314204 -0.236427 1
350 213 1.184623 -0.254076 -0.235665 1
352 213 1.145420 -0.185403 -0.230810 1
354 213 1.110025 -0.109471 -0.222311 1