TITLE = "B00020"
VARIABLES = "X", "Y", "Vx", "Vy", "Vz", "flag"
ZONE T="B00020", I=70, J=78
308 191 0.000000 0.000000 0.000000 0
310 191 0.000000 0.000000 0.000000 0
312 191 0.000000 0.000000 0.000000 0
314 191 0.000000 0.000000 0.000000 0
316 191 0.000000 0.000000 0.000000 0
318 191 0.000000 0.000000 0.000000 0
320 191 0.000000 0.000000 0.000000 0
322 191 0.000000 0.000000 0.000000 0
324 191 0.000000 0.000000 0.000000 0
326 191 0.000000 0.000000 0.000000 0
328 191 0.000000 0.000000 0.000000 0
330 191 0.000000 0.000000 0.000000 0
332 191 0.000000 0.000000 0.000000 0
334 191 0.000000 0.000000 0.000000 0
336 191 0.000000 0.000000 0.000000 0
338 191 0.000000 0.000000 0.000000 0
340 191 0.000000 0.000000 0.000000 0
342 191 0.000000 0.000000 0.000000 0
344 191 0.000000 0.000000 0.000000 0
346 191 0.000000 0.000000 0.000000 0
348 191 0.000000 0.000000 0.000000 0
350 191 0.000000 0.000000 0.000000 0
352 191 0.000000 0.000000 0.000000 0
354 191 0.000000 0.000000 0.000000 0
356 191 0.000000 0.000000 0.000000 0
358 191 0.000000 0.000000 0.000000 0
360 191 0.000000 0.000000 0.000000 0
362 191 0.000000 0.000000 0.000000 0
364 191 0.000000 0.000000 0.000000 0
366 191 0.000000 0.000000 0.000000 0
368 191 0.000000 0.000000 0.000000 0
370 191 0.000000 0.000000 0.000000 0
372 191 0.000000 0.000000 0.000000 0
374 191 0.000000 0.000000 0.000000 0
376 191 0.000000 0.000000 0.000000 0
378 191 0.000000 0.000000 0.000000 0
380 191 0.000000 0.000000 0.000000 0
382 191 0.000000 0.000000 0.000000 0
384 191 0.000000 0.000000 0.000000 0
386 191 0.000000 0.000000 0.000000 0
388 191 0.000000 0.000000 0.000000 0
390 191 0.000000 0.000000 0.000000 0
392 191 0.000000 0.000000 0.000000 0
394 191 0.000000 0.000000 0.000000 0
396 191 0.000000 0.000000 0.000000 0
398 191 0.000000 0.000000 0.000000 0
400 191 0.000000 0.000000 0.000000 0
402 191 0.000000 0.000000 0.000000 0
404 191 0.000000 0.000000 0.000000 0
406 191 0.000000 0.000000 0.000000 0
408 191 0.000000 0.000000 0.000000 0
410 191 0.000000 0.000000 0.000000 0
412 191 0.000000 0.000000 0.000000 0
414 191 0.000000 0.000000 0.000000 0
416 191 0.000000 0.000000 0.000000 0
418 191 0.000000 0.000000 0.000000 0
420 191 0.000000 0.000000 0.000000 0
422 191 0.000000 0.000000 0.000000 0
424 191 0.000000 0.000000 0.000000 0
426 191 0.000000 0.000000 0.000000 0
428 191 0.000000 0.000000 0.000000 0
430 191 0.000000 0.000000 0.000000 0
432 191 0.000000 0.000000 0.000000 0
434 191 0.000000 0.000000 0.000000 0
436 191 0.000000 0.000000 0.000000 0
438 191 0.000000 0.000000 0.000000 0
440 191 0.000000 0.000000 0.000000 0
442 191 0.000000 0.000000 0.000000 0
444 191 0.000000 0.000000 0.000000 0
446 191 0.000000 0.000000 0.000000 0
308 193 0.000000 0.000000 0.000000 0
310 193 0.000000 0.000000 0.000000 0
312 193 0.000000 0.000000 0.000000 0
314 193 0.000000 0.000000 0.000000 0
316 193 0.000000 0.000000 0.000000 0
318 193 0.000000 0.000000 0.000000 0
320 193 0.000000 0.000000 0.000000 0
322 193 0.000000 0.000000 0.000000 0
324 193 0.000000 0.000000 0.000000 0
326 193 0.000000 0.000000 0.000000 0
328 193 0.000000 0.000000 0.000000 0
330 193 0.000000 0.000000 0.000000 0
332 193 0.000000 0.000000 0.000000 0
334 193 0.000000 0.000000 0.000000 0
336 193 0.000000 0.000000 0.000000 0
338 193 0.000000 0.000000 0.000000 0
340 193 0.000000 0.000000 0.000000 0
342 193 0.000000 0.000000 0.000000 0
344 193 0.000000 0.000000 0.000000 0
346 193 0.000000 0.000000 0.000000 0
348 193 0.000000 0.000000 0.000000 0
350 193 0.000000 0.000000 0.000000 0
352 193 0.000000 0.000000 0.000000 0
354 193 0.000000 0.000000 0.000000 0
356 193 0.000000 0.000000 0.000000 0
358 193 0.000000 0.000000 0.000000 0
360 193 0.000000 0.000000 0.000000 0
362 193 0.000000 0.000000 0.000000 0
364 193 0.000000 0.000000 0.000000 0
366 193 0.000000 0.000000 0.000000 0
368 193 0.000000 0.000000 0.000000 0
370 193 0.000000 0.000000 0.000000 0
372 193 0.000000 0.000000 0.000000 0
374 193 0.000000 0.000000 0.000000 0
376 193 0.000000 0.000000 0.000000 0
378 193 0.000000 0.000000 0.000000 0
380 193 0.000000 0.000000 0.000000 0
382 193 0.000000 0.000000 0.000000 0
384 193 0.000000 0.000000 0.000000 0
386 193 0.000000 0.000000 0.000000 0
388 193 0.000000 0.000000 0.000000 0
390 193 0.000000 0.000000 0.000000 0
392 193 0.000000 0.000000 0.000000 0
394 193 0.000000 0.000000 0.000000 0
396 193 0.000000 0.000000 0.000000 0
398 193 0.000000 0.000000 0.000000 0
400 193 0.000000 0.000000 0.000000 0
402 193 0.000000 0.000000 0.000000 0
404 193 0.000000 0.000000 0.000000 0
406 193 0.000000 0.000000 0.000000 0
408 193 0.000000 0.000000 0.000000 0
410 193 0.000000 0.000000 0.000000 0
412 193 0.000000 0.000000 0.000000 0
414 193 0.000000 0.000000 0.000000 0
416 193 0.000000 0.000000 0.000000 0
418 193 0.000000 0.000000 0.000000 0
420 193 0.000000 0.000000 0.000000 0
422 193 0.000000 0.000000 0.000000 0
424 193 0.000000 0.000000 0.000000 0
426 193 0.000000 0.000000 0.000000 0
428 193 0.000000 0.000000 0.000000 0
430 193 0.000000 0.000000 0.000000 0
432 193 0.000000 0.000000 0.000000 0
434 193 0.000000 0.000000 0.000000 0
436 193 0.000000 0.000000 0.000000 0
438 193 0.000000 0.000000 0.000000 0
440 193 0.000000 0.000000 0.000000 0
442 193 0.000000 0.000000 0.000000 0
444 193 0.000000 0.000000 0.000000 0
446 193 0.000000 0.000000 0.000000 0
308 195 0.000000 0.000000 0.000000 0
310 195 0.000000 0.000000 0.000000 0
312 195 0.000000 0.000000 0.000000 0
314 195 0.000000 0.000000 0.000000 0
316 195 0.000000 0.000000 0.000000 0
318 195 0.000000 0.000000 0.000000 0
320 195 0.000000 0.000000 0.000000 0
322 195 0.000000 0.000000 0.000000 0
324 195 0.000000 0.000000 0.000000 0
326 195 0.000000 0.000000 0.000000 0
328 195 0.000000 0.000000 0.000000 0
330 195 0.000000 0.000000 0.000000 0
332 195 0.000000 0.000000 0.000000 0
334 195 0.000000 0.000000 0.000000 0
336 195 0.000000 0.000000 0.000000 0
338 195 0.000000 0.000000 0.000000 0
340 195 0.000000 0.000000 0.000000 0
342 195 0.000000 0.000000 0.000000 0
344 195 0.000000 0.000000 0.000000 0
346 195 0.000000 0.000000 0.000000 0
348 195 0.000000 0.000000 0.000000 0
350 195 0.000000 0.000000 0.000000 0
352 195 0.000000 0.000000 0.000000 0
354 195 0.000000 0.000000 0.000000 0
356 195 0.000000 0.000000 0.000000 0
358 195 0.000000 0.000000 0.000000 0
360 195 0.000000 0.000000 0.000000 0
362 195 0.000000 0.000000 0.000000 0
364 195 0.000000 0.000000 0.000000 0
366 195 0.000000 0.000000 0.000000 0
368 195 0.000000 0.000000 0.000000 0
370 195 0.000000 0.000000 0.000000 0
372 195 0.000000 0.000000 0.000000 0
374 195 0.000000 0.000000 0.000000 0
376 195 0.000000 0.000000 0.000000 0
378 195 0.000000 0.000000 0.000000 0
380 195 0.000000 0.000000 0.000000 0
382 195 0.000000 0.000000 0.000000 0
384 195 0.000000 0.000000 0.000000 0
386 195 0.000000 0.000000 0.000000 0
388 195 0.000000 0.000000 0.000000 0
390 195 0.000000 0.000000 0.000000 0
392 195 0.000000 0.000000 0.000000 0
394 195 0.000000 0.000000 0.000000 0
396 195 0.000000 0.000000 0.000000 0
398 195 0.000000 0.000000 0.000000 0
400 195 0.000000 0.000000 0.000000 0
402 195 0.000000 0.000000 0.000000 0
404 195 0.000000 0.000000 0.000000 0
406 195 0.000000 0.000000 0.000000 0
408 195 0.000000 0.000000 0.000000 0
410 195 0.000000 0.000000 0.000000 0
412 195 0.000000 0.000000 0.000000 0
414 195 0.000000 0.000000 0.000000 0
416 195 0.000000 0.000000 0.000000 0
418 195 0.000000 0.000000 0.000000 0
420 195 0.000000 0.000000 0.000000 0
422 195 0.000000 0.000000 0.000000 0
424 195 0.000000 0.000000 0.000000 0
426 195 0.000000 0.000000 0.000000 0
428 195 0.000000 0.000000 0.000000 0
430 195 0.000000 0.000000 0.000000 0
432 195 0.000000 0.000000 0.000000 0
434 195 0.000000 0.000000 0.000000 0
436 195 0.000000 0.000000 0.000000 0
438 195 0.000000 0.000000 0.000000 0
440 195 0.000000 0.000000 0.000000 0
442 195 0.000000 0.000000 0.000000 0
444 195 0.000000 0.000000 0.000000 0
446 195 0.000000 0.000000 0.000000 0
308 197 0.000000 0.000000 0.000000 0
310 197 0.000000 0.000000 0.000000 0
312 197 0.000000 0.000000 0.000000 0
314 197 0.000000 0.000000 0.000000 0
316 197 0.000000 0.000000 0.000000 0
318 197 -0.071965 0.335596 -0.007005 1
320 197 -0.095552 0.296950 -0.012196 1
322 197 -0.152398 0.273216 0.010325 1
324 197 -0.213787 0.251957 0.016623 1
326 197 -0.262582 0.220248 -0.005578 1
328 197 -0.297562 0.171804 -0.045110 1
330 197 -0.316549 0.105678 -0.078816 1
332 197 -0.319377 0.028372 -0.101423 1
334 197 -0.312729 -0.049770 -0.108182 1
336 197 -0.299504 -0.120180 -0.109326 1
338 197 -0.280297 -0.188029 -0.110367 1
340 197 -0.256618 -0.259525 -0.119715 1
342 197 -0.223971 -0.327090 -0.146871 1
344 197 -0.182674 -0.391490 -0.182294 1
346 197 -0.137356 -0.447058 -0.200803 1
348 197 -0.084517 -0.492241 -0.195775 1
350 197 -0.027326 -0.531612 -0.185103 1
352 197 0.032852 -0.561579 -0.168253 1
354 197 0.103673 -0.582886 -0.144535 1
356 197 0.182805 -0.589589 -0.124697 1
358 197 0.255251 -0.576621 -0.124208 1
360 197 0.318784 -0.558166 -0.136733 1
362 197 0.378522 -0.529147 -0.158174 1
364 197 0.436049 -0.490564 -0.181102 1
366 197 0.488993 -0.448199 -0.200854 1
368 197 0.536020 -0.403025 -0.204968 1
370 197 0.578886 -0.359463 -0.196097 1
372 197 0.614916 -0.317229 -0.183782 1
374 197 0.643884 -0.273413 -0.177119 1
376 197 0.661971 -0.223236 -0.173539 1
378 197 0.673277 -0.168211 -0.168290 1
380 197 0.688178 -0.115939 -0.166632 1
382 197 0.707796 -0.066215 -0.165142 1
384 197 0.724347 -0.017976 -0.160464 1
386 197 0.729749 0.029345 -0.155692 1
388 197 0.726222 0.077348 -0.152978 1
390 197 0.720656 0.127593 -0.152780 1
392 197 0.715403 0.179193 -0.156356 1
394 197 0.708357 0.229927 -0.160035 1
396 197 0.697477 0.275095 -0.155478 1
398 197 0.680090 0.313975 -0.149181 1
400 197 0.652987 0.356042 -0.142498 1
402 197 0.622960 0.400324 -0.129318 1
404 197 0.653436 0.436045 -0.134064 1
406 197 0.000000 0.000000 0.000000 0
408 197 0.000000 0.000000 0.000000 0
410 197 0.000000 0.000000 0.000000 0
412 197 0.000000 0.000000 0.000000 0
414 197 0.000000 0.000000 0.000000 0
416 197 0.000000 0.000000 0.000000 0
418 197 0.000000 0.000000 0.000000 0
420 197 0.000000 0.000000 0.000000 0
422 197 0.000000 0.000000 0.000000 0
424 197 0.000000 0.000000 0.000000 0
426 197 0.000000 0.000000 0.000000 0
428 197 0.000000 0.000000 0.000000 0
430 197 0.000000 0.000000 0.000000 0
432 197 0.000000 0.000000 0.000000 0
434 197 0.000000 0.000000 0.000000 0
436 197 0.000000 0.000000 0.000000 0
438 197 0.000000 0.000000 0.000000 0
440 197 0.000000 0.000000 0.000000 0
442 197 0.000000 0.000000 0.000000 0
444 197 0.000000 0.000000 0.000000 0
446 197 0.000000 0.000000 0.000000 0
308 199 0.000000 0.000000 0.000000 0
310 199 0.000000 0.000000 0.000000 0
312 199 0.000000 0.000000 0.000000 0
314 199 0.000000 0.000000 0.000000 0
316 199 -0.021579 0.410811 0.012856 1
318 199 -0.064616 0.392960 0.015936 1
320 199 -0.125840 0.378313 0.028578 1
322 199 -0.180659 0.348428 0.041469 1
324 199 -0.235115 0.314134 0.043640 1
326 199 -0.278574 0.267572 0.027728 1
328 199 -0.307843 0.201806 0.001727 1
330 199 -0.317296 0.119598 -0.017487 1
332 199 -0.306288 0.024742 -0.027246 1
334 199 -0.279858 -0.075033 -0.025111 1
336 199 -0.250313 -0.162963 -0.027621 1
338 199 -0.217448 -0.246852 -0.038359 1
340 199 -0.187377 -0.329617 -0.055724 1
342 199 -0.150529 -0.408656 -0.088256 1
344 199 -0.105280 -0.482817 -0.130417 1
346 199 -0.056203 -0.545975 -0.163994 1
348 199 -0.000401 -0.595647 -0.186242 1
350 199 0.059048 -0.636682 -0.200035 1
352 199 0.120063 -0.665270 -0.207611 1
354 199 0.188732 -0.682726 -0.203390 1
356 199 0.263613 -0.683326 -0.202130 1
358 199 0.331207 -0.664020 -0.213358 1
360 199 0.391718 -0.639927 -0.230735 1
362 199 0.448627 -0.605921 -0.248077 1
364 199 0.503747 -0.563454 -0.260801 1
366 199 0.553645 -0.515738 -0.265647 1
368 199 0.598207 -0.463785 -0.259907 1
370 199 0.639259 -0.411547 -0.245819 1
372 199 0.675788 -0.360554 -0.231291 1
374 199 0.708359 -0.309691 -0.222366 1
376 199 0.734879 -0.253058 -0.214658 1
378 199 0.753955 -0.192674 -0.205138 1
380 199 0.772735 -0.133576 -0.199432 1
382 199 0.790010 -0.077353 -0.196544 1
384 199 0.802517 -0.023150 -0.192309 1
386 199 0.805847 0.028822 -0.187334 1
388 199 0.802224 0.080340 -0.181489 1
390 199 0.797670 0.133922 -0.172075 1
392 199 0.792778 0.187738 -0.165190 1
394 199 0.784196 0.240988 -0.159577 1
396 199 0.770174 0.289532 -0.153720 1
398 199 0.750430 0.333138 -0.152380 1
400 199 0.725465 0.380667 -0.155614 1
402 199 0.700314 0.429048 -0.151281 1
404 199 0.675144 0.472154 -0.132001 1
406 199 0.705261 0.506009 -0.126753 1
408 199 0.000000 0.000000 0.000000 0
410 199 0.000000 0.000000 0.000000 0
412 199 0.000000 0.000000 0.000000 0
414 199 0.000000 0.000000 0.000000 0
416 199 0.000000 0.000000 0.000000 0
418 199 0.000000 0.000000 0.000000 0
420 199 0.000000 0.000000 0.000000 0
422 199 0.000000 0.000000 0.000000 0
424 199 0.000000 0.000000 0.000000 0
426 199 0.000000 0.000000 0.000000 0
428 199 0.000000 0.000000 0.000000 0
430 199 0.000000 0.000000 0.000000 0
432 199 0.000000 0.000000 0.000000 0
434 199 0.000000 0.000000 0.000000 0
436 199 0.000000 0.000000 0.000000 0
438 199 0.000000 0.000000 0.000000 0
440 199 0.000000 0.000000 0.000000 0
442 199 0.000000 0.000000 0.000000 0
444 199 0.000000 0.000000 0.000000 0
446 199 0.000000 0.000000 0.000000 0
308 201 0.000000 0.000000 0.000000 0
310 201 0.000000 0.000000 0.000000 0
312 201 0.000000 0.000000 0.000000 0
314 201 0.000000 0.000000 0.000000 0
316 201 -0.012224 0.473109 0.027300 1
318 201 -0.061300 0.478029 0.047174 1
320 201 -0.126079 0.458149 0.054562 1
322 201 -0.173664 0.418193 0.060795 1
324 201 -0.216450 0.369357 0.060433 1
326 201 -0.249597 0.303605 0.051793 1
328 201 -0.270283 0.221967 0.039939 1
330 201 -0.263888 0.123930 0.043374 1
332 201 -0.232895 0.011835 0.059681 1
334 201 -0.187594 -0.105558 0.083679 1
336 201 -0.142488 -0.209287 0.087880 1
338 201 -0.101417 -0.302297 0.070489 1
340 201 -0.064854 -0.392670 0.041955 1
342 201 -0.022875 -0.477745 0.003746 1
344 201 0.028644 -0.557962 -0.042175 1
346 201 0.080517 -0.626549 -0.086481 1
348 201 0.134545 -0.679650 -0.127740 1
350 201 0.190447 -0.722093 -0.163608 1
352 201 0.246218 -0.749470 -0.187552 1
354 201 0.304028 -0.763588 -0.203176 1
356 201 0.365536 -0.761536 -0.218396 1
358 201 0.417216 -0.740130 -0.244055 1
360 201 0.466356 -0.713201 -0.270481 1
362 201 0.515890 -0.676409 -0.290665 1
364 201 0.565372 -0.630343 -0.299654 1
366 201 0.611355 -0.578784 -0.298389 1
368 201 0.651795 -0.520672 -0.287153 1
370 201 0.690306 -0.461103 -0.270784 1
372 201 0.725893 -0.402226 -0.255747 1
374 201 0.760833 -0.344224 -0.246308 1
376 201 0.792701 -0.282234 -0.237466 1
378 201 0.819080 -0.216135 -0.224830 1
380 201 0.841232 -0.151440 -0.215685 1
382 201 0.857225 -0.088173 -0.210562 1
384 201 0.866817 -0.028270 -0.206690 1
386 201 0.868645 0.028057 -0.202255 1
388 201 0.865378 0.083555 -0.195058 1
390 201 0.861732 0.140537 -0.182171 1
392 201 0.856590 0.197395 -0.169307 1
394 201 0.846052 0.252835 -0.160158 1
396 201 0.829091 0.304575 -0.155138 1
398 201 0.808430 0.352375 -0.157822 1
400 201 0.786563 0.404390 -0.166058 1
402 201 0.767031 0.456298 -0.165168 1
404 201 0.747551 0.501566 -0.145003 1
406 201 0.725809 0.539228 -0.110369 1
408 201 0.752924 0.567705 -0.094795 1
410 201 0.000000 0.000000 0.000000 0
412 201 0.000000 0.000000 0.000000 0
414 201 0.000000 0.000000 0.000000 0
416 201 0.000000 0.000000 0.000000 0
418 201 0.000000 0.000000 0.000000 0
420 201 0.000000 0.000000 0.000000 0
422 201 0.000000 0.000000 0.000000 0
424 201 0.000000 0.000000 0.000000 0
426 201 0.000000 0.000000 0.000000 0
428 201 0.000000 0.000000 0.000000 0
430 201 0.000000 0.000000 0.000000 0
432 201 0.000000 0.000000 0.000000 0
434 201 0.000000 0.000000 0.000000 0
436 201 0.000000 0.000000 0.000000 0
438 201 0.000000 0.000000 0.000000 0
440 201 0.000000 0.000000 0.000000 0
442 201 0.000000 0.000000 0.000000 0
444 201 0.000000 0.000000 0.000000 0
446 201 0.000000 0.000000 0.000000 0
308 203 0.000000 0.000000 0.000000 0
310 203 0.000000 0.000000 0.000000 0
312 203 0.000000 0.000000 0.000000 0
314 203 0.000000 0.000000 0.000000 0
316 203 0.010248 0.540802 -0.015997 1
318 203 -0.003839 0.544184 0.068855 1
320 203 -0.054322 0.514589 0.084478 1
322 203 -0.081172 0.461441 0.095178 1
324 203 -0.099482 0.394807 0.100835 1
326 203 -0.117173 0.313385 0.102010 1
328 203 -0.123128 0.215409 0.107126 1
330 203 -0.103205 0.106127 0.130317 1
332 203 -0.058712 -0.018757 0.173586 1
334 203 -0.008325 -0.147022 0.217269 1
336 203 0.037856 -0.258342 0.228327 1
338 203 0.080483 -0.355919 0.205924 1
340 203 0.122511 -0.449190 0.170668 1
342 203 0.174939 -0.537993 0.128480 1
344 203 0.235299 -0.622201 0.082477 1
346 203 0.290409 -0.694964 0.034044 1
348 203 0.340607 -0.750576 -0.018186 1
350 203 0.391629 -0.793415 -0.065679 1
352 203 0.440093 -0.817734 -0.101881 1
354 203 0.487705 -0.827953 -0.131636 1
356 203 0.531203 -0.823121 -0.167303 1
358 203 0.562834 -0.800777 -0.212537 1
360 203 0.592292 -0.772945 -0.257236 1
362 203 0.626791 -0.734694 -0.288851 1
364 203 0.665060 -0.686943 -0.302961 1
366 203 0.700191 -0.633221 -0.302964 1
368 203 0.731522 -0.572659 -0.290819 1
370 203 0.761220 -0.508528 -0.272752 1
372 203 0.791137 -0.443980 -0.257921 1
374 203 0.823203 -0.379401 -0.250738 1
376 203 0.855004 -0.311384 -0.244934 1
378 203 0.882492 -0.240449 -0.233081 1
380 203 0.904717 -0.169754 -0.221220 1
382 203 0.918750 -0.100342 -0.213113 1
384 203 0.925557 -0.033763 -0.207915 1
386 203 0.925853 0.027248 -0.203815 1
388 203 0.922251 0.086797 -0.197296 1
390 203 0.917853 0.147499 -0.185574 1
392 203 0.910620 0.206911 -0.173276 1
394 203 0.896348 0.264730 -0.165020 1
396 203 0.877043 0.319084 -0.161442 1
398 203 0.856202 0.370962 -0.165742 1
400 203 0.837144 0.426911 -0.173769 1
402 203 0.821642 0.481922 -0.170608 1
404 203 0.807597 0.530038 -0.145842 1
406 203 0.791848 0.569990 -0.108408 1
408 203 0.783945 0.584528 -0.091728 1
410 203 0.000000 0.000000 0.000000 0
412 203 0.000000 0.000000 0.000000 0
414 203 0.000000 0.000000 0.000000 0
416 203 0.000000 0.000000 0.000000 0
418 203 0.000000 0.000000 0.000000 0
420 203 0.000000 0.000000 0.000000 0
422 203 0.000000 0.000000 0.000000 0
424 203 0.000000 0.000000 0.000000 0
426 203 0.000000 0.000000 0.000000 0
428 203 0.000000 0.000000 0.000000 0
430 203 0.000000 0.000000 0.000000 0
432 203 0.000000 0.000000 0.000000 0
434 203 0.000000 0.000000 0.000000 0
436 203 0.000000 0.000000 0.000000 0
438 203 0.000000 0.000000 0.000000 0
440 203 0.000000 0.000000 0.000000 0
442 203 0.000000 0.000000 0.000000 0
444 203 0.000000 0.000000 0.000000 0
446 203 0.000000 0.000000 0.000000 0
308 205 0.000000 0.000000 0.000000 0
310 205 0.000000 0.000000 0.000000 0
312 205 0.000000 0.000000 0.000000 0
314 205 0.000000 0.000000 0.000000 0
316 205 0.132418 0.580915 0.064205 1
318 205 0.120105 0.578684 0.115274 1
320 205 0.096893 0.535759 0.141826 1
322 205 0.101976 0.468589 0.164415 1
324 205 0.112793 0.387294 0.186626 1
326 205 0.118657 0.291062 0.209157 1
328 205 0.129150 0.182670 0.230975 1
330 205 0.159979 0.067039 0.266589 1
332 205 0.204743 -0.061703 0.317942 1
334 205 0.244983 -0.192552 0.361598 1
336 205 0.282494 -0.306492 0.369880 1
338 205 0.323626 -0.406722 0.342911 1
340 205 0.373206 -0.503888 0.302929 1
342 205 0.436066 -0.596945 0.258932 1
344 205 0.505685 -0.686533 0.212221 1
346 205 0.563252 -0.762621 0.162333 1
348 205 0.611434 -0.818868 0.107098 1
350 205 0.659563 -0.859234 0.055776 1
352 205 0.703690 -0.877763 0.014669 1
354 205 0.742637 -0.880025 -0.025800 1
356 205 0.773874 -0.869564 -0.075875 1
358 205 0.785998 -0.842859 -0.141707 1
360 205 0.795370 -0.813127 -0.205299 1
362 205 0.810067 -0.773840 -0.253210 1
364 205 0.830157 -0.725557 -0.280484 1
366 205 0.848059 -0.672325 -0.289865 1
368 205 0.858823 -0.613667 -0.281457 1
370 205 0.872187 -0.550187 -0.262561 1
372 205 0.886700 -0.483464 -0.249172 1
374 205 0.908626 -0.414226 -0.247499 1
376 205 0.931823 -0.341148 -0.249602 1
378 205 0.952746 -0.265727 -0.242626 1
380 205 0.969951 -0.190630 -0.230417 1
382 205 0.980353 -0.114239 -0.217555 1
384 205 0.985415 -0.040913 -0.208793 1
386 205 0.984909 0.027000 -0.203721 1
388 205 0.980070 0.091465 -0.199335 1
390 205 0.972662 0.156007 -0.192606 1
392 205 0.961380 0.218175 -0.184728 1
394 205 0.943905 0.277928 -0.178287 1
396 205 0.922850 0.335140 -0.173910 1
398 205 0.902310 0.390154 -0.176015 1
400 205 0.885430 0.449330 -0.178802 1
402 205 0.872674 0.507222 -0.170335 1
404 205 0.861743 0.558692 -0.142232 1
406 205 0.849492 0.601746 -0.105893 1
408 205 0.843066 0.616767 -0.091381 1
410 205 0.000000 0.000000 0.000000 0
412 205 0.000000 0.000000 0.000000 0
414 205 0.000000 0.000000 0.000000 0
416 205 0.000000 0.000000 0.000000 0
418 205 0.000000 0.000000 0.000000 0
420 205 0.000000 0.000000 0.000000 0
422 205 0.000000 0.000000 0.000000 0
424 205 0.000000 0.000000 0.000000 0
426 205 0.000000 0.000000 0.000000 0
428 205 0.000000 0.000000 0.000000 0
430 205 0.000000 0.000000 0.000000 0
432 205 0.000000 0.000000 0.000000 0
434 205 0.000000 0.000000 0.000000 0
436 205 0.000000 0.000000 0.000000 0
438 205 0.000000 0.000000 0.000000 0
440 205 0.000000 0.000000 0.000000 0
442 205 0.000000 0.000000 0.000000 0
444 205 0.000000 0.000000 0.000000 0
446 205 0.000000 0.000000 0.000000 0
308 207 0.000000 0.000000 0.000000 0
310 207 0.000000 0.000000 0.000000 0
312 207 0.000000 0.000000 0.000000 0
314 207 0.000000 0.000000 0.000000 0
316 207 0.292210 0.609576 0.148954 1
318 207 0.265810 0.592281 0.181480 1
320 207 0.271221 0.538590 0.217163 1
322 207 0.306773 0.459673 0.249338 1
324 207 0.341355 0.367609 0.289657 1
326 207 0.366116 0.262388 0.335937 1
328 207 0.393405 0.147929 0.376811 1
330 207 0.431938 0.032406 0.414305 1
332 207 0.474528 -0.094331 0.456650 1
334 207 0.505661 -0.225184 0.487685 1
336 207 0.534215 -0.341881 0.484714 1
338 207 0.573322 -0.447218 0.449430 1
340 207 0.626477 -0.550851 0.401414 1
342 207 0.695310 -0.651184 0.350362 1
344 207 0.767752 -0.746057 0.300092 1
346 207 0.826790 -0.825264 0.249400 1
348 207 0.875272 -0.880388 0.196246 1
350 207 0.923812 -0.916441 0.146893 1
352 207 0.966999 -0.927213 0.105272 1
354 207 1.003652 -0.920569 0.061487 1
356 207 1.029796 -0.900982 0.004148 1
358 207 1.035090 -0.867703 -0.068714 1
360 207 1.031250 -0.832875 -0.142975 1
362 207 1.031503 -0.791052 -0.202087 1
364 207 1.034443 -0.741264 -0.244330 1
366 207 1.032163 -0.688767 -0.269317 1
368 207 1.020221 -0.633849 -0.270773 1
370 207 1.007526 -0.575596 -0.255849 1
372 207 1.002604 -0.511448 -0.246520 1
374 207 1.006261 -0.441988 -0.252865 1
376 207 1.015807 -0.367505 -0.263875 1
378 207 1.025535 -0.290508 -0.263364 1
380 207 1.034872 -0.212665 -0.251651 1
382 207 1.041925 -0.131492 -0.233697 1
384 207 1.046847 -0.049939 -0.217468 1
386 207 1.046998 0.025527 -0.209280 1
388 207 1.041008 0.097072 -0.205996 1
390 207 1.030240 0.166309 -0.204496 1
392 207 1.015383 0.231904 -0.201954 1
394 207 0.995803 0.294334 -0.197277 1
396 207 0.974319 0.354167 -0.191119 1
398 207 0.954156 0.412434 -0.188295 1
400 207 0.937971 0.473404 -0.184434 1
402 207 0.925807 0.533129 -0.169715 1
404 207 0.914809 0.587540 -0.140981 1
406 207 0.901954 0.633408 -0.109177 1
408 207 0.896473 0.648858 -0.097313 1
410 207 0.000000 0.000000 0.000000 0
412 207 0.000000 0.000000 0.000000 0
414 207 0.000000 0.000000 0.000000 0
416 207 0.000000 0.000000 0.000000 0
418 207 0.000000 0.000000 0.000000 0
420 207 0.000000 0.000000 0.000000 0
422 207 0.000000 0.000000 0.000000 0
424 207 0.000000 0.000000 0.000000 0
426 207 0.000000 0.000000 0.000000 0
428 207 0.000000 0.000000 0.000000 0
430 207 0.000000 0.000000 0.000000 0
432 207 0.000000 0.000000 0.000000 0
434 207 0.000000 0.000000 0.000000 0
436 207 0.000000 0.000000 0.000000 0
438 207 0.000000 0.000000 0.000000 0
440 207 0.000000 0.000000 0.000000 0
442 207 0.000000 0.000000 0.000000 0
444 207 0.000000 0.000000 0.000000 0
446 207 0.000000 0.000000 0.000000 0
308 209 0.000000 0.000000 0.000000 0
310 209 0.000000 0.000000 0.000000 0
312 209 0.000000 0.000000 0.000000 0
314 209 0.000000 0.000000 0.000000 0
316 209 0.500288 0.613706 0.215485 1
318 209 0.487451 0.587694 0.252750 1
320 209 0.516367 0.522575 0.291776 1
322 209 0.569622 0.435167 0.327185 1
324 209 0.618030 0.336597 0.379164 1
326 209 0.651525 0.230374 0.441096 1
328 209 0.685709 0.119711 0.489169 1
330 209 0.728079 0.012265 0.515714 1
332 209 0.770403 -0.108180 0.538965 1
334 209 0.798217 -0.237619 0.545620 1
336 209 0.822834 -0.358988 0.526689 1
338 209 0.858500 -0.473934 0.477125 1
340 209 0.908834 -0.588726 0.419996 1
342 209 0.973005 -0.698090 0.365013 1
344 209 1.039735 -0.797909 0.317149 1
346 209 1.095802 -0.877900 0.271677 1
348 209 1.142270 -0.929879 0.226918 1
350 209 1.189848 -0.960639 0.183106 1
352 209 1.232061 -0.962976 0.143977 1
354 209 1.269192 -0.946540 0.101703 1
356 209 1.297500 -0.917522 0.048211 1
358 209 1.305814 -0.873534 -0.013560 1
360 209 1.301662 -0.830145 -0.078110 1
362 209 1.295993 -0.780236 -0.132263 1
364 209 1.287756 -0.725636 -0.181102 1
366 209 1.267548 -0.671438 -0.221071 1
368 209 1.230152 -0.619847 -0.241019 1
370 209 1.190810 -0.567508 -0.241615 1
372 209 1.156156 -0.511328 -0.247600 1
374 209 1.136667 -0.448103 -0.264644 1
376 209 1.123537 -0.379937 -0.284894 1
378 209 1.117626 -0.306698 -0.288855 1
380 209 1.115527 -0.229956 -0.276508 1
382 209 1.116747 -0.145724 -0.251122 1
384 209 1.120057 -0.058287 -0.226299 1
386 209 1.119049 0.025673 -0.212366 1
388 209 1.110953 0.103755 -0.209025 1
390 209 1.096710 0.178750 -0.212009 1
392 209 1.079875 0.248642 -0.214517 1
394 209 1.060422 0.314958 -0.212035 1
396 209 1.040162 0.378807 -0.204225 1
398 209 1.020543 0.439694 -0.197045 1
400 209 1.003165 0.500786 -0.185368 1
402 209 0.988315 0.559797 -0.166652 1
404 209 0.972659 0.614638 -0.140747 1
406 209 0.955495 0.661563 -0.116136 1
408 209 0.948921 0.676836 -0.106346 1
410 209 0.000000 0.000000 0.000000 0
412 209 0.000000 0.000000 0.000000 0
414 209 0.000000 0.000000 0.000000 0
416 209 0.000000 0.000000 0.000000 0
418 209 0.000000 0.000000 0.000000 0
420 209 0.000000 0.000000 0.000000 0
422 209 0.000000 0.000000 0.000000 0
424 209 0.000000 0.000000 0.000000 0
426 209 0.000000 0.000000 0.000000 0
428 209 0.000000 0.000000 0.000000 0
430 209 0.000000 0.000000 0.000000 0
432 209 0.000000 0.000000 0.000000 0
434 209 0.000000 0.000000 0.000000 0
436 209 0.000000 0.000000 0.000000 0
438 209 0.000000 0.000000 0.000000 0
440 209 0.000000 0.000000 0.000000 0
442 209 0.000000 0.000000 0.000000 0
444 209 0.000000 0.000000 0.000000 0
446 209 0.000000 0.000000 0.000000 0
308 211 0.000000 0.000000 0.000000 0
310 211 0.000000 0.000000 0.000000 0
312 211 0.000000 0.000000 0.000000 0
314 211 0.000000 0.000000 0.000000 0
316 211 0.754386 0.610906 0.269779 1
318 211 0.754882 0.578854 0.311926 1
320 211 0.795583 0.505455 0.354908 1
322 211 0.862052 0.408477 0.392773 1
324 211 0.918310 0.305525 0.447876 1
326 211 0.955573 0.200986 0.512613 1
328 211 0.990521 0.096794 0.557751 1
330 211 1.033169 -0.002944 0.570192 1
332 211 1.076940 -0.115161 0.568733 1
334 211 1.108120 -0.241857 0.549973 1
336 211 1.135262 -0.367701 0.505750 1
338 211 1.170832 -0.492891 0.440929 1
340 211 1.218654 -0.621257 0.379865 1
342 211 1.276315 -0.740633 0.330903 1
344 211 1.335874 -0.844376 0.293705 1
346 211 1.385455 -0.924901 0.259170 1
348 211 1.425963 -0.974815 0.222397 1
350 211 1.466571 -1.000951 0.184586 1
352 211 1.503482 -0.996503 0.146885 1
354 211 1.537031 -0.970696 0.105935 1
356 211 1.566014 -0.931389 0.059683 1
358 211 1.577795 -0.876385 0.014926 1
360 211 1.577999 -0.819932 -0.026234 1
362 211 1.572445 -0.759520 -0.063250 1
364 211 1.558661 -0.695210 -0.103255 1
366 211 1.527553 -0.635486 -0.148597 1
368 211 1.473517 -0.581814 -0.187140 1
370 211 1.410586 -0.532371 -0.212969 1
372 211 1.350717 -0.483398 -0.239393 1
374 211 1.300657 -0.431883 -0.271765 1
376 211 1.263597 -0.374322 -0.299171 1
378 211 1.235501 -0.310566 -0.307115 1
380 211 1.218141 -0.238321 -0.293890 1
382 211 1.208317 -0.154662 -0.262258 1
384 211 1.204547 -0.063897 -0.228644 1
386 211 1.198487 0.024843 -0.210250 1
388 211 1.186257 0.109268 -0.205810 1
390 211 1.169446 0.189019 -0.210725 1
392 211 1.151459 0.263829 -0.216328 1
394 211 1.133202 0.334735 -0.215365 1
396 211 1.114873 0.403052 -0.206643 1
398 211 1.096098 0.467116 -0.196282 1
400 211 1.076525 0.528015 -0.181280 1
402 211 1.056407 0.584661 -0.160930 1
404 211 1.034873 0.637684 -0.138077 1
406 211 1.012100 0.683554 -0.118283 1
408 211 1.004089 0.698937 -0.109566 1
410 211 0.000000 0.000000 0.000000 0
412 211 0.000000 0.000000 0.000000 0
414 211 0.000000 0.000000 0.000000 0
416 211 0.000000 0.000000 0.000000 0
418 211 0.000000 0.000000 0.000000 0
420 211 0.000000 0.000000 0.000000 0
422 211 0.000000 0.000000 0.000000 0
424 211 0.000000 0.000000 0.000000 0
426 211 0.000000 0.000000 0.000000 0
428 211 0.000000 0.000000 0.000000 0
430 211 0.000000 0.000000 0.000000 0
432 211 0.000000 0.000000 0.000000 0
434 211 0.000000 0.000000 0.000000 0
436 211 0.000000 0.000000 0.000000 0
438 211 0.000000 0.000000 0.000000 0
440 211 0.000000 0.000000 0.000000 0
442 211 0.000000 0.000000 0.000000 0
444 211 0.000000 0.000000 0.000000 0
446 211 0.000000 0.000000 0.000000 0
308 213 0.000000 0.000000 0.000000 0
310 213 0.000000 0.000000 0.000000 0
312 213 0.000000 0.000000 0.000000 0
314 213 0.000000 0.000000 0.000000 0
316 213 1.034063 0.598755 0.287932 1
318 213 1.038925 0.565933 0.335025 1
320 213 1.084952 0.487823 0.384952 1
322 213 1.154656 0.385730 0.427727 1
324 213 1.215094 0.280037 0.479842 1
326 213 1.253958 0.177018 0.535492 1
328 213 1.287297 0.075824 0.566340 1
330 213 1.327905 -0.021318 0.561933 1
332 213 1.372662 -0.129232 0.539143 1
334 213 1.412346 -0.252244 0.495720 1
336 213 1.448379 -0.379629 0.434254 1
338 213 1.490417 -0.513315 0.361038 1
340 213 1.538298 -0.650766 0.306059 1
342 213 1.590168 -0.776429 0.272468 1
344 213 1.640891 -0.881365 0.249981 1
346 213 1.681526 -0.961361 0.226193 1
348 213 1.710313 -1.009253 0.197208 1
350 213 1.739865 -1.032377 0.163461 1
352 213 1.763980 -1.021555 0.127100 1