TITLE = "B00017"
VARIABLES = "X", "Y", "Vx", "Vy", "Vz", "flag"
ZONE T="B00017", I=70, J=78
308 191 0.000000 0.000000 0.000000 0
310 191 0.000000 0.000000 0.000000 0
312 191 0.000000 0.000000 0.000000 0
314 191 0.000000 0.000000 0.000000 0
316 191 0.000000 0.000000 0.000000 0
318 191 0.000000 0.000000 0.000000 0
320 191 0.000000 0.000000 0.000000 0
322 191 0.000000 0.000000 0.000000 0
324 191 0.000000 0.000000 0.000000 0
326 191 0.000000 0.000000 0.000000 0
328 191 0.000000 0.000000 0.000000 0
330 191 0.000000 0.000000 0.000000 0
332 191 0.000000 0.000000 0.000000 0
334 191 0.000000 0.000000 0.000000 0
336 191 0.000000 0.000000 0.000000 0
338 191 0.000000 0.000000 0.000000 0
340 191 0.000000 0.000000 0.000000 0
342 191 0.000000 0.000000 0.000000 0
344 191 0.000000 0.000000 0.000000 0
346 191 0.000000 0.000000 0.000000 0
348 191 0.000000 0.000000 0.000000 0
350 191 0.000000 0.000000 0.000000 0
352 191 0.000000 0.000000 0.000000 0
354 191 0.000000 0.000000 0.000000 0
356 191 0.000000 0.000000 0.000000 0
358 191 0.000000 0.000000 0.000000 0
360 191 0.000000 0.000000 0.000000 0
362 191 0.000000 0.000000 0.000000 0
364 191 0.000000 0.000000 0.000000 0
366 191 0.000000 0.000000 0.000000 0
368 191 0.000000 0.000000 0.000000 0
370 191 0.000000 0.000000 0.000000 0
372 191 0.000000 0.000000 0.000000 0
374 191 0.000000 0.000000 0.000000 0
376 191 0.000000 0.000000 0.000000 0
378 191 0.000000 0.000000 0.000000 0
380 191 0.000000 0.000000 0.000000 0
382 191 0.000000 0.000000 0.000000 0
384 191 0.000000 0.000000 0.000000 0
386 191 0.000000 0.000000 0.000000 0
388 191 0.000000 0.000000 0.000000 0
390 191 0.000000 0.000000 0.000000 0
392 191 0.000000 0.000000 0.000000 0
394 191 0.000000 0.000000 0.000000 0
396 191 0.000000 0.000000 0.000000 0
398 191 0.000000 0.000000 0.000000 0
400 191 0.000000 0.000000 0.000000 0
402 191 0.000000 0.000000 0.000000 0
404 191 0.000000 0.000000 0.000000 0
406 191 0.000000 0.000000 0.000000 0
408 191 0.000000 0.000000 0.000000 0
410 191 0.000000 0.000000 0.000000 0
412 191 0.000000 0.000000 0.000000 0
414 191 0.000000 0.000000 0.000000 0
416 191 0.000000 0.000000 0.000000 0
418 191 0.000000 0.000000 0.000000 0
420 191 0.000000 0.000000 0.000000 0
422 191 0.000000 0.000000 0.000000 0
424 191 0.000000 0.000000 0.000000 0
426 191 0.000000 0.000000 0.000000 0
428 191 0.000000 0.000000 0.000000 0
430 191 0.000000 0.000000 0.000000 0
432 191 0.000000 0.000000 0.000000 0
434 191 0.000000 0.000000 0.000000 0
436 191 0.000000 0.000000 0.000000 0
438 191 0.000000 0.000000 0.000000 0
440 191 0.000000 0.000000 0.000000 0
442 191 0.000000 0.000000 0.000000 0
444 191 0.000000 0.000000 0.000000 0
446 191 0.000000 0.000000 0.000000 0
308 193 0.000000 0.000000 0.000000 0
310 193 0.000000 0.000000 0.000000 0
312 193 0.000000 0.000000 0.000000 0
314 193 0.000000 0.000000 0.000000 0
316 193 0.000000 0.000000 0.000000 0
318 193 0.000000 0.000000 0.000000 0
320 193 0.000000 0.000000 0.000000 0
322 193 0.000000 0.000000 0.000000 0
324 193 0.000000 0.000000 0.000000 0
326 193 0.000000 0.000000 0.000000 0
328 193 0.000000 0.000000 0.000000 0
330 193 0.000000 0.000000 0.000000 0
332 193 0.000000 0.000000 0.000000 0
334 193 0.000000 0.000000 0.000000 0
336 193 0.000000 0.000000 0.000000 0
338 193 0.000000 0.000000 0.000000 0
340 193 0.000000 0.000000 0.000000 0
342 193 0.000000 0.000000 0.000000 0
344 193 0.000000 0.000000 0.000000 0
346 193 0.000000 0.000000 0.000000 0
348 193 0.000000 0.000000 0.000000 0
350 193 0.000000 0.000000 0.000000 0
352 193 0.000000 0.000000 0.000000 0
354 193 0.000000 0.000000 0.000000 0
356 193 0.000000 0.000000 0.000000 0
358 193 0.000000 0.000000 0.000000 0
360 193 0.000000 0.000000 0.000000 0
362 193 0.000000 0.000000 0.000000 0
364 193 0.000000 0.000000 0.000000 0
366 193 0.000000 0.000000 0.000000 0
368 193 0.000000 0.000000 0.000000 0
370 193 0.000000 0.000000 0.000000 0
372 193 0.000000 0.000000 0.000000 0
374 193 0.000000 0.000000 0.000000 0
376 193 0.000000 0.000000 0.000000 0
378 193 0.000000 0.000000 0.000000 0
380 193 0.000000 0.000000 0.000000 0
382 193 0.000000 0.000000 0.000000 0
384 193 0.000000 0.000000 0.000000 0
386 193 0.000000 0.000000 0.000000 0
388 193 0.000000 0.000000 0.000000 0
390 193 0.000000 0.000000 0.000000 0
392 193 0.000000 0.000000 0.000000 0
394 193 0.000000 0.000000 0.000000 0
396 193 0.000000 0.000000 0.000000 0
398 193 0.000000 0.000000 0.000000 0
400 193 0.000000 0.000000 0.000000 0
402 193 0.000000 0.000000 0.000000 0
404 193 0.000000 0.000000 0.000000 0
406 193 0.000000 0.000000 0.000000 0
408 193 0.000000 0.000000 0.000000 0
410 193 0.000000 0.000000 0.000000 0
412 193 0.000000 0.000000 0.000000 0
414 193 0.000000 0.000000 0.000000 0
416 193 0.000000 0.000000 0.000000 0
418 193 0.000000 0.000000 0.000000 0
420 193 0.000000 0.000000 0.000000 0
422 193 0.000000 0.000000 0.000000 0
424 193 0.000000 0.000000 0.000000 0
426 193 0.000000 0.000000 0.000000 0
428 193 0.000000 0.000000 0.000000 0
430 193 0.000000 0.000000 0.000000 0
432 193 0.000000 0.000000 0.000000 0
434 193 0.000000 0.000000 0.000000 0
436 193 0.000000 0.000000 0.000000 0
438 193 0.000000 0.000000 0.000000 0
440 193 0.000000 0.000000 0.000000 0
442 193 0.000000 0.000000 0.000000 0
444 193 0.000000 0.000000 0.000000 0
446 193 0.000000 0.000000 0.000000 0
308 195 0.000000 0.000000 0.000000 0
310 195 0.000000 0.000000 0.000000 0
312 195 0.000000 0.000000 0.000000 0
314 195 0.000000 0.000000 0.000000 0
316 195 0.000000 0.000000 0.000000 0
318 195 0.000000 0.000000 0.000000 0
320 195 0.000000 0.000000 0.000000 0
322 195 0.000000 0.000000 0.000000 0
324 195 0.000000 0.000000 0.000000 0
326 195 0.000000 0.000000 0.000000 0
328 195 0.000000 0.000000 0.000000 0
330 195 0.000000 0.000000 0.000000 0
332 195 0.000000 0.000000 0.000000 0
334 195 0.000000 0.000000 0.000000 0
336 195 0.000000 0.000000 0.000000 0
338 195 0.000000 0.000000 0.000000 0
340 195 0.000000 0.000000 0.000000 0
342 195 0.000000 0.000000 0.000000 0
344 195 0.000000 0.000000 0.000000 0
346 195 0.000000 0.000000 0.000000 0
348 195 0.000000 0.000000 0.000000 0
350 195 0.000000 0.000000 0.000000 0
352 195 0.000000 0.000000 0.000000 0
354 195 0.000000 0.000000 0.000000 0
356 195 0.000000 0.000000 0.000000 0
358 195 0.000000 0.000000 0.000000 0
360 195 0.000000 0.000000 0.000000 0
362 195 0.000000 0.000000 0.000000 0
364 195 0.000000 0.000000 0.000000 0
366 195 0.000000 0.000000 0.000000 0
368 195 0.000000 0.000000 0.000000 0
370 195 0.000000 0.000000 0.000000 0
372 195 0.000000 0.000000 0.000000 0
374 195 0.000000 0.000000 0.000000 0
376 195 0.000000 0.000000 0.000000 0
378 195 0.000000 0.000000 0.000000 0
380 195 0.000000 0.000000 0.000000 0
382 195 0.000000 0.000000 0.000000 0
384 195 0.000000 0.000000 0.000000 0
386 195 0.000000 0.000000 0.000000 0
388 195 0.000000 0.000000 0.000000 0
390 195 0.000000 0.000000 0.000000 0
392 195 0.000000 0.000000 0.000000 0
394 195 0.000000 0.000000 0.000000 0
396 195 0.000000 0.000000 0.000000 0
398 195 0.000000 0.000000 0.000000 0
400 195 0.000000 0.000000 0.000000 0
402 195 0.000000 0.000000 0.000000 0
404 195 0.000000 0.000000 0.000000 0
406 195 0.000000 0.000000 0.000000 0
408 195 0.000000 0.000000 0.000000 0
410 195 0.000000 0.000000 0.000000 0
412 195 0.000000 0.000000 0.000000 0
414 195 0.000000 0.000000 0.000000 0
416 195 0.000000 0.000000 0.000000 0
418 195 0.000000 0.000000 0.000000 0
420 195 0.000000 0.000000 0.000000 0
422 195 0.000000 0.000000 0.000000 0
424 195 0.000000 0.000000 0.000000 0
426 195 0.000000 0.000000 0.000000 0
428 195 0.000000 0.000000 0.000000 0
430 195 0.000000 0.000000 0.000000 0
432 195 0.000000 0.000000 0.000000 0
434 195 0.000000 0.000000 0.000000 0
436 195 0.000000 0.000000 0.000000 0
438 195 0.000000 0.000000 0.000000 0
440 195 0.000000 0.000000 0.000000 0
442 195 0.000000 0.000000 0.000000 0
444 195 0.000000 0.000000 0.000000 0
446 195 0.000000 0.000000 0.000000 0
308 197 0.000000 0.000000 0.000000 0
310 197 0.000000 0.000000 0.000000 0
312 197 0.000000 0.000000 0.000000 0
314 197 0.000000 0.000000 0.000000 0
316 197 0.000000 0.000000 0.000000 0
318 197 -0.153842 0.262072 -0.028167 1
320 197 -0.167164 0.217341 -0.050307 1
322 197 -0.215559 0.167639 -0.046704 1
324 197 -0.265586 0.117504 -0.040227 1
326 197 -0.292056 0.061823 -0.039986 1
328 197 -0.299337 -0.002219 -0.051136 1
330 197 -0.295848 -0.068234 -0.074214 1
332 197 -0.275386 -0.133883 -0.100187 1
334 197 -0.242138 -0.198259 -0.116547 1
336 197 -0.208495 -0.254867 -0.123481 1
338 197 -0.175828 -0.308795 -0.122741 1
340 197 -0.141552 -0.366373 -0.129092 1
342 197 -0.102841 -0.415083 -0.154579 1
344 197 -0.053360 -0.454732 -0.184620 1
346 197 0.004775 -0.484898 -0.184527 1
348 197 0.070708 -0.503254 -0.150743 1
350 197 0.139621 -0.515379 -0.123459 1
352 197 0.207653 -0.516413 -0.116481 1
354 197 0.274271 -0.505757 -0.117533 1
356 197 0.334091 -0.484998 -0.113567 1
358 197 0.383432 -0.452993 -0.106735 1
360 197 0.428114 -0.418350 -0.111975 1
362 197 0.473823 -0.380708 -0.133453 1
364 197 0.521303 -0.340017 -0.155711 1
366 197 0.566690 -0.299968 -0.162789 1
368 197 0.604468 -0.258038 -0.152013 1
370 197 0.633517 -0.214385 -0.141232 1
372 197 0.649311 -0.166128 -0.137235 1
374 197 0.657790 -0.115271 -0.138990 1
376 197 0.665019 -0.063599 -0.140155 1
378 197 0.674747 -0.014588 -0.140568 1
380 197 0.687217 0.028609 -0.146450 1
382 197 0.690980 0.070605 -0.155171 1
384 197 0.684059 0.114813 -0.160767 1
386 197 0.672136 0.161087 -0.157169 1
388 197 0.661810 0.205507 -0.145666 1
390 197 0.655293 0.245663 -0.125403 1
392 197 0.645879 0.281496 -0.108239 1
394 197 0.630535 0.317866 -0.106524 1
396 197 0.610042 0.359529 -0.122619 1
398 197 0.585043 0.402460 -0.146723 1
400 197 0.553932 0.447227 -0.160047 1
402 197 0.524685 0.489415 -0.147917 1
404 197 0.554456 0.523381 -0.128715 1
406 197 0.000000 0.000000 0.000000 0
408 197 0.000000 0.000000 0.000000 0
410 197 0.000000 0.000000 0.000000 0
412 197 0.000000 0.000000 0.000000 0
414 197 0.000000 0.000000 0.000000 0
416 197 0.000000 0.000000 0.000000 0
418 197 0.000000 0.000000 0.000000 0
420 197 0.000000 0.000000 0.000000 0
422 197 0.000000 0.000000 0.000000 0
424 197 0.000000 0.000000 0.000000 0
426 197 0.000000 0.000000 0.000000 0
428 197 0.000000 0.000000 0.000000 0
430 197 0.000000 0.000000 0.000000 0
432 197 0.000000 0.000000 0.000000 0
434 197 0.000000 0.000000 0.000000 0
436 197 0.000000 0.000000 0.000000 0
438 197 0.000000 0.000000 0.000000 0
440 197 0.000000 0.000000 0.000000 0
442 197 0.000000 0.000000 0.000000 0
444 197 0.000000 0.000000 0.000000 0
446 197 0.000000 0.000000 0.000000 0
308 199 0.000000 0.000000 0.000000 0
310 199 0.000000 0.000000 0.000000 0
312 199 0.000000 0.000000 0.000000 0
314 199 0.000000 0.000000 0.000000 0
316 199 -0.136599 0.341869 -0.002995 1
318 199 -0.159722 0.312810 0.007562 1
320 199 -0.207640 0.270747 0.009174 1
322 199 -0.250667 0.212298 0.005266 1
324 199 -0.290588 0.149013 0.000577 1
326 199 -0.310467 0.080463 -0.006549 1
328 199 -0.312564 0.001418 -0.020584 1
330 199 -0.301633 -0.080638 -0.040178 1
332 199 -0.270305 -0.165092 -0.061269 1
334 199 -0.223712 -0.252595 -0.078833 1
336 199 -0.181820 -0.327505 -0.097951 1
338 199 -0.143471 -0.395842 -0.118557 1
340 199 -0.104719 -0.460204 -0.138867 1
342 199 -0.059034 -0.513454 -0.170480 1
344 199 -0.002273 -0.555942 -0.205240 1
346 199 0.061492 -0.587573 -0.218246 1
348 199 0.129704 -0.605029 -0.208482 1
350 199 0.199181 -0.614942 -0.197048 1
352 199 0.266677 -0.613135 -0.192917 1
354 199 0.333887 -0.600466 -0.185407 1
356 199 0.396812 -0.577052 -0.172969 1
358 199 0.450036 -0.539631 -0.167548 1
360 199 0.497523 -0.497132 -0.180088 1
362 199 0.543704 -0.448335 -0.208003 1
364 199 0.590044 -0.397666 -0.227905 1
366 199 0.634244 -0.346892 -0.221375 1
368 199 0.672296 -0.296768 -0.195016 1
370 199 0.703114 -0.245901 -0.171369 1
372 199 0.723055 -0.192251 -0.162392 1
374 199 0.736274 -0.137502 -0.164492 1
376 199 0.746618 -0.081447 -0.168851 1
378 199 0.754936 -0.027507 -0.169206 1
380 199 0.762422 0.022412 -0.170123 1
382 199 0.762266 0.070730 -0.172838 1
384 199 0.753788 0.121056 -0.173494 1
386 199 0.741860 0.172609 -0.168699 1
388 199 0.730624 0.220686 -0.157006 1
390 199 0.720343 0.263726 -0.135183 1
392 199 0.705891 0.301909 -0.114858 1
394 199 0.684608 0.341711 -0.109045 1
396 199 0.661007 0.387570 -0.122805 1
398 199 0.637215 0.434236 -0.145207 1
400 199 0.613901 0.480207 -0.155599 1
402 199 0.594375 0.520868 -0.140055 1
404 199 0.577193 0.552882 -0.099979 1
406 199 0.604257 0.577099 -0.072418 1
408 199 0.000000 0.000000 0.000000 0
410 199 0.000000 0.000000 0.000000 0
412 199 0.000000 0.000000 0.000000 0
414 199 0.000000 0.000000 0.000000 0
416 199 0.000000 0.000000 0.000000 0
418 199 0.000000 0.000000 0.000000 0
420 199 0.000000 0.000000 0.000000 0
422 199 0.000000 0.000000 0.000000 0
424 199 0.000000 0.000000 0.000000 0
426 199 0.000000 0.000000 0.000000 0
428 199 0.000000 0.000000 0.000000 0
430 199 0.000000 0.000000 0.000000 0
432 199 0.000000 0.000000 0.000000 0
434 199 0.000000 0.000000 0.000000 0
436 199 0.000000 0.000000 0.000000 0
438 199 0.000000 0.000000 0.000000 0
440 199 0.000000 0.000000 0.000000 0
442 199 0.000000 0.000000 0.000000 0
444 199 0.000000 0.000000 0.000000 0
446 199 0.000000 0.000000 0.000000 0
308 201 0.000000 0.000000 0.000000 0
310 201 0.000000 0.000000 0.000000 0
312 201 0.000000 0.000000 0.000000 0
314 201 0.000000 0.000000 0.000000 0
316 201 -0.138713 0.389095 0.023811 1
318 201 -0.169516 0.373264 0.049374 1
320 201 -0.216750 0.320822 0.049145 1
322 201 -0.251239 0.251342 0.037828 1
324 201 -0.279167 0.175562 0.027354 1
326 201 -0.288148 0.091188 0.018977 1
328 201 -0.283304 -0.001246 0.008945 1
330 201 -0.260246 -0.098503 0.002868 1
332 201 -0.211810 -0.200295 0.000939 1
334 201 -0.147429 -0.305222 0.001084 1
336 201 -0.092578 -0.395183 -0.017771 1
338 201 -0.049529 -0.470326 -0.055080 1
340 201 -0.010006 -0.537216 -0.103724 1
342 201 0.035727 -0.590807 -0.155446 1
344 201 0.091192 -0.633587 -0.208212 1
346 201 0.151748 -0.666099 -0.240673 1
348 201 0.212972 -0.684325 -0.251117 1
350 201 0.273907 -0.694294 -0.252541 1
352 201 0.332848 -0.691916 -0.248008 1
354 201 0.390273 -0.678437 -0.235220 1
356 201 0.448162 -0.653695 -0.218967 1
358 201 0.499069 -0.612787 -0.215014 1
360 201 0.547750 -0.563816 -0.229895 1
362 201 0.595318 -0.507290 -0.256581 1
364 201 0.642363 -0.447599 -0.269888 1
366 201 0.686920 -0.389670 -0.254000 1
368 201 0.725601 -0.332207 -0.218788 1
370 201 0.758172 -0.275201 -0.190180 1
372 201 0.781907 -0.216033 -0.180003 1
374 201 0.800430 -0.157162 -0.180292 1
376 201 0.814654 -0.098072 -0.181671 1
378 201 0.823401 -0.039559 -0.177566 1
380 201 0.828133 0.015696 -0.174423 1
382 201 0.824528 0.070848 -0.174771 1
384 201 0.814358 0.127152 -0.175688 1
386 201 0.801809 0.183453 -0.174178 1
388 201 0.789188 0.234999 -0.165383 1
390 201 0.775997 0.280671 -0.145113 1
392 201 0.756853 0.322382 -0.124460 1
394 201 0.731593 0.365554 -0.116617 1
396 201 0.705458 0.414942 -0.126415 1
398 201 0.682739 0.463836 -0.143588 1
400 201 0.664583 0.509577 -0.147528 1
402 201 0.652123 0.547401 -0.126739 1
404 201 0.639474 0.575015 -0.084986 1
406 201 0.619437 0.598437 -0.045734 1
408 201 0.637372 0.615617 -0.028467 1
410 201 0.000000 0.000000 0.000000 0
412 201 0.000000 0.000000 0.000000 0
414 201 0.000000 0.000000 0.000000 0
416 201 0.000000 0.000000 0.000000 0
418 201 0.000000 0.000000 0.000000 0
420 201 0.000000 0.000000 0.000000 0
422 201 0.000000 0.000000 0.000000 0
424 201 0.000000 0.000000 0.000000 0
426 201 0.000000 0.000000 0.000000 0
428 201 0.000000 0.000000 0.000000 0
430 201 0.000000 0.000000 0.000000 0
432 201 0.000000 0.000000 0.000000 0
434 201 0.000000 0.000000 0.000000 0
436 201 0.000000 0.000000 0.000000 0
438 201 0.000000 0.000000 0.000000 0
440 201 0.000000 0.000000 0.000000 0
442 201 0.000000 0.000000 0.000000 0
444 201 0.000000 0.000000 0.000000 0
446 201 0.000000 0.000000 0.000000 0
308 203 0.000000 0.000000 0.000000 0
310 203 0.000000 0.000000 0.000000 0
312 203 0.000000 0.000000 0.000000 0
314 203 0.000000 0.000000 0.000000 0
316 203 -0.100178 0.442462 0.042974 1
318 203 -0.109767 0.412931 0.101696 1
320 203 -0.135320 0.348891 0.101513 1
322 203 -0.150632 0.268462 0.084857 1
324 203 -0.160462 0.179472 0.073375 1
326 203 -0.157863 0.082679 0.070723 1
328 203 -0.141819 -0.023809 0.071602 1
330 203 -0.107543 -0.131953 0.080206 1
332 203 -0.045633 -0.246005 0.101887 1
334 203 0.027443 -0.360821 0.123684 1
336 203 0.086836 -0.457032 0.113891 1
338 203 0.131092 -0.534181 0.065733 1
340 203 0.169572 -0.600411 -0.004700 1
342 203 0.212079 -0.652210 -0.085755 1
344 203 0.262689 -0.694030 -0.158860 1
346 203 0.315077 -0.726553 -0.210232 1
348 203 0.365814 -0.745370 -0.234123 1
350 203 0.415746 -0.755570 -0.242680 1
352 203 0.459635 -0.752293 -0.242951 1
354 203 0.500205 -0.738199 -0.238859 1
356 203 0.538620 -0.713680 -0.235970 1
358 203 0.576266 -0.672416 -0.240414 1
360 203 0.617131 -0.620795 -0.257032 1
362 203 0.660957 -0.559246 -0.278956 1
364 203 0.705394 -0.493893 -0.285666 1
366 203 0.746766 -0.429734 -0.264611 1
368 203 0.782379 -0.367111 -0.229549 1
370 203 0.812911 -0.303644 -0.204312 1
372 203 0.837050 -0.238385 -0.197226 1
374 203 0.857859 -0.174338 -0.196619 1
376 203 0.874288 -0.111738 -0.191647 1
378 203 0.883624 -0.050137 -0.179417 1
380 203 0.886690 0.009942 -0.168733 1
382 203 0.881051 0.070417 -0.167281 1
384 203 0.869228 0.132970 -0.171009 1
386 203 0.855654 0.193642 -0.173993 1
388 203 0.841386 0.248541 -0.169254 1
390 203 0.825203 0.297924 -0.152944 1
392 203 0.802879 0.343453 -0.134909 1
394 203 0.774143 0.390569 -0.126618 1
396 203 0.746179 0.441679 -0.132028 1
398 203 0.723422 0.491025 -0.141536 1
400 203 0.707166 0.535936 -0.138274 1
402 203 0.697108 0.571633 -0.113086 1
404 203 0.686385 0.596139 -0.072029 1
406 203 0.668466 0.616992 -0.036609 1
408 203 0.659383 0.626127 -0.025563 1
410 203 0.000000 0.000000 0.000000 0
412 203 0.000000 0.000000 0.000000 0
414 203 0.000000 0.000000 0.000000 0
416 203 0.000000 0.000000 0.000000 0
418 203 0.000000 0.000000 0.000000 0
420 203 0.000000 0.000000 0.000000 0
422 203 0.000000 0.000000 0.000000 0
424 203 0.000000 0.000000 0.000000 0
426 203 0.000000 0.000000 0.000000 0
428 203 0.000000 0.000000 0.000000 0
430 203 0.000000 0.000000 0.000000 0
432 203 0.000000 0.000000 0.000000 0
434 203 0.000000 0.000000 0.000000 0
436 203 0.000000 0.000000 0.000000 0
438 203 0.000000 0.000000 0.000000 0
440 203 0.000000 0.000000 0.000000 0
442 203 0.000000 0.000000 0.000000 0
444 203 0.000000 0.000000 0.000000 0
446 203 0.000000 0.000000 0.000000 0
308 205 0.000000 0.000000 0.000000 0
310 205 0.000000 0.000000 0.000000 0
312 205 0.000000 0.000000 0.000000 0
314 205 0.000000 0.000000 0.000000 0
316 205 0.011688 0.462800 0.135941 1
318 205 0.032028 0.425447 0.190325 1
320 205 0.045764 0.345554 0.199647 1
322 205 0.064015 0.254893 0.185640 1
324 205 0.074489 0.156611 0.180937 1
326 205 0.089997 0.049420 0.189462 1
328 205 0.115852 -0.065842 0.199242 1
330 205 0.158362 -0.181345 0.214120 1
332 205 0.221715 -0.300211 0.243029 1
334 205 0.288844 -0.417705 0.268483 1
336 205 0.343476 -0.515318 0.260423 1
338 205 0.386780 -0.593352 0.208759 1
340 205 0.426763 -0.660567 0.126642 1
342 205 0.469321 -0.712407 0.030104 1
344 205 0.516462 -0.753325 -0.059761 1
346 205 0.562459 -0.784354 -0.122841 1
348 205 0.605185 -0.799975 -0.154245 1
350 205 0.645433 -0.805744 -0.168826 1
352 205 0.675599 -0.796967 -0.179379 1
354 205 0.692732 -0.778750 -0.198573 1
356 205 0.706283 -0.753950 -0.220584 1
358 205 0.717019 -0.715129 -0.244058 1
360 205 0.740190 -0.665184 -0.264620 1
362 205 0.769991 -0.603882 -0.282710 1
364 205 0.802739 -0.536726 -0.285526 1
366 205 0.832902 -0.470103 -0.265550 1
368 205 0.856900 -0.403391 -0.236945 1
370 205 0.880182 -0.334561 -0.218645 1
372 205 0.900044 -0.261528 -0.216875 1
374 205 0.919318 -0.190993 -0.216631 1
376 205 0.934662 -0.123103 -0.207074 1
378 205 0.943206 -0.057191 -0.187077 1
380 205 0.945305 0.007004 -0.169753 1
382 205 0.938781 0.073251 -0.165077 1
384 205 0.926239 0.140956 -0.169822 1
386 205 0.911413 0.206472 -0.174872 1
388 205 0.895113 0.265529 -0.172963 1
390 205 0.876012 0.319763 -0.161447 1
392 205 0.850727 0.370023 -0.147447 1
394 205 0.819765 0.419801 -0.138400 1
396 205 0.790048 0.470443 -0.135587 1
398 205 0.766517 0.518087 -0.136408 1
400 205 0.749382 0.561438 -0.127101 1
402 205 0.738496 0.596392 -0.101772 1
404 205 0.727523 0.620423 -0.064874 1
406 205 0.710843 0.640561 -0.034462 1
408 205 0.703008 0.648899 -0.025025 1
410 205 0.000000 0.000000 0.000000 0
412 205 0.000000 0.000000 0.000000 0
414 205 0.000000 0.000000 0.000000 0
416 205 0.000000 0.000000 0.000000 0
418 205 0.000000 0.000000 0.000000 0
420 205 0.000000 0.000000 0.000000 0
422 205 0.000000 0.000000 0.000000 0
424 205 0.000000 0.000000 0.000000 0
426 205 0.000000 0.000000 0.000000 0
428 205 0.000000 0.000000 0.000000 0
430 205 0.000000 0.000000 0.000000 0
432 205 0.000000 0.000000 0.000000 0
434 205 0.000000 0.000000 0.000000 0
436 205 0.000000 0.000000 0.000000 0
438 205 0.000000 0.000000 0.000000 0
440 205 0.000000 0.000000 0.000000 0
442 205 0.000000 0.000000 0.000000 0
444 205 0.000000 0.000000 0.000000 0
446 205 0.000000 0.000000 0.000000 0
308 207 0.000000 0.000000 0.000000 0
310 207 0.000000 0.000000 0.000000 0
312 207 0.000000 0.000000 0.000000 0
314 207 0.000000 0.000000 0.000000 0
316 207 0.179269 0.478726 0.228698 1
318 207 0.193747 0.421745 0.284767 1
320 207 0.248452 0.329109 0.314168 1
322 207 0.304112 0.229033 0.315527 1
324 207 0.331948 0.125602 0.322528 1
326 207 0.354374 0.014301 0.341616 1
328 207 0.385790 -0.105268 0.356847 1
330 207 0.431473 -0.223676 0.367745 1
332 207 0.493013 -0.345177 0.385501 1
334 207 0.555490 -0.464549 0.397697 1
336 207 0.606787 -0.564633 0.379317 1
338 207 0.651501 -0.646493 0.323226 1
340 207 0.695177 -0.718449 0.238398 1
342 207 0.740825 -0.773700 0.136613 1
344 207 0.788368 -0.814545 0.043017 1
346 207 0.832232 -0.841840 -0.024724 1
348 207 0.871761 -0.850477 -0.059883 1
350 207 0.906522 -0.846420 -0.080363 1
352 207 0.926450 -0.826976 -0.102588 1
354 207 0.928267 -0.800557 -0.141437 1
356 207 0.918227 -0.772182 -0.192316 1
358 207 0.906897 -0.734836 -0.234918 1
360 207 0.906209 -0.689369 -0.264939 1
362 207 0.917391 -0.632582 -0.282867 1
364 207 0.930808 -0.569187 -0.285344 1
366 207 0.941507 -0.504513 -0.269414 1
368 207 0.949124 -0.437554 -0.247176 1
370 207 0.959304 -0.364807 -0.235104 1
372 207 0.972747 -0.286281 -0.235106 1
374 207 0.987439 -0.208582 -0.234734 1
376 207 0.999604 -0.134533 -0.223403 1
378 207 1.006102 -0.062753 -0.200451 1
380 207 1.007503 0.007160 -0.179341 1
382 207 1.001393 0.078727 -0.171996 1
384 207 0.989270 0.152188 -0.175192 1
386 207 0.973460 0.221815 -0.179172 1
388 207 0.954888 0.285625 -0.177567 1
390 207 0.933051 0.344811 -0.169597 1
392 207 0.905524 0.399662 -0.159172 1
394 207 0.873101 0.451996 -0.148516 1
396 207 0.842365 0.501451 -0.137966 1
398 207 0.817006 0.545564 -0.128214 1
400 207 0.796907 0.586722 -0.115420 1
402 207 0.782213 0.621299 -0.093168 1
404 207 0.769042 0.646491 -0.062643 1
406 207 0.752395 0.667425 -0.036402 1
408 207 0.746155 0.675320 -0.026931 1
410 207 0.000000 0.000000 0.000000 0
412 207 0.000000 0.000000 0.000000 0
414 207 0.000000 0.000000 0.000000 0
416 207 0.000000 0.000000 0.000000 0
418 207 0.000000 0.000000 0.000000 0
420 207 0.000000 0.000000 0.000000 0
422 207 0.000000 0.000000 0.000000 0
424 207 0.000000 0.000000 0.000000 0
426 207 0.000000 0.000000 0.000000 0
428 207 0.000000 0.000000 0.000000 0
430 207 0.000000 0.000000 0.000000 0
432 207 0.000000 0.000000 0.000000 0
434 207 0.000000 0.000000 0.000000 0
436 207 0.000000 0.000000 0.000000 0
438 207 0.000000 0.000000 0.000000 0
440 207 0.000000 0.000000 0.000000 0
442 207 0.000000 0.000000 0.000000 0
444 207 0.000000 0.000000 0.000000 0
446 207 0.000000 0.000000 0.000000 0
308 209 0.000000 0.000000 0.000000 0
310 209 0.000000 0.000000 0.000000 0
312 209 0.000000 0.000000 0.000000 0
314 209 0.000000 0.000000 0.000000 0
316 209 0.417095 0.474496 0.274519 1
318 209 0.444212 0.404130 0.346141 1
320 209 0.524306 0.298057 0.398111 1
322 209 0.597755 0.192698 0.414656 1
324 209 0.632366 0.089434 0.432037 1
326 209 0.651154 -0.018447 0.456525 1
328 209 0.677188 -0.134866 0.472382 1
330 209 0.719412 -0.252823 0.474258 1
332 209 0.780327 -0.375821 0.475593 1
334 209 0.846802 -0.499036 0.462345 1
336 209 0.902120 -0.604475 0.427842 1
338 209 0.949955 -0.694572 0.364884 1
340 209 0.994855 -0.774755 0.284842 1
342 209 1.040419 -0.834813 0.194686 1
344 209 1.087761 -0.873969 0.117269 1
346 209 1.131311 -0.894608 0.058318 1
348 209 1.168339 -0.889756 0.023074 1
350 209 1.198694 -0.872020 -0.003857 1
352 209 1.212001 -0.837999 -0.035955 1
354 209 1.206808 -0.799490 -0.085503 1
356 209 1.188358 -0.763038 -0.147306 1
358 209 1.163159 -0.722016 -0.200051 1
360 209 1.145615 -0.678237 -0.236666 1
362 209 1.132442 -0.627998 -0.260155 1
364 209 1.119686 -0.572417 -0.269800 1
366 209 1.101057 -0.515402 -0.264481 1
368 209 1.082850 -0.453497 -0.251729 1
370 209 1.074375 -0.382662 -0.243556 1
372 209 1.072413 -0.303688 -0.242499 1
374 209 1.076909 -0.223262 -0.241444 1
376 209 1.079302 -0.144349 -0.231695 1
378 209 1.080295 -0.066793 -0.210534 1
380 209 1.079025 0.009669 -0.190147 1
382 209 1.072867 0.087592 -0.181018 1
384 209 1.061045 0.165761 -0.181158 1
386 209 1.043871 0.239652 -0.180891 1
388 209 1.023216 0.307072 -0.177201 1
390 209 0.998889 0.370573 -0.169911 1
392 209 0.970297 0.428987 -0.160690 1
394 209 0.937901 0.483223 -0.147750 1
396 209 0.906614 0.531449 -0.130663 1
398 209 0.878755 0.572893 -0.115553 1
400 209 0.852598 0.611619 -0.102515 1
402 209 0.832730 0.646097 -0.084198 1
404 209 0.816811 0.673085 -0.057716 1
406 209 0.800733 0.695244 -0.031591 1
408 209 0.795041 0.703025 -0.019987 1
410 209 0.000000 0.000000 0.000000 0
412 209 0.000000 0.000000 0.000000 0
414 209 0.000000 0.000000 0.000000 0
416 209 0.000000 0.000000 0.000000 0
418 209 0.000000 0.000000 0.000000 0
420 209 0.000000 0.000000 0.000000 0
422 209 0.000000 0.000000 0.000000 0
424 209 0.000000 0.000000 0.000000 0
426 209 0.000000 0.000000 0.000000 0
428 209 0.000000 0.000000 0.000000 0
430 209 0.000000 0.000000 0.000000 0
432 209 0.000000 0.000000 0.000000 0
434 209 0.000000 0.000000 0.000000 0
436 209 0.000000 0.000000 0.000000 0
438 209 0.000000 0.000000 0.000000 0
440 209 0.000000 0.000000 0.000000 0
442 209 0.000000 0.000000 0.000000 0
444 209 0.000000 0.000000 0.000000 0
446 209 0.000000 0.000000 0.000000 0
308 211 0.000000 0.000000 0.000000 0
310 211 0.000000 0.000000 0.000000 0
312 211 0.000000 0.000000 0.000000 0
314 211 0.000000 0.000000 0.000000 0
316 211 0.712117 0.460800 0.302406 1
318 211 0.751679 0.380958 0.382292 1
320 211 0.839917 0.265913 0.445144 1
322 211 0.922628 0.155382 0.470149 1
324 211 0.959736 0.054004 0.488500 1
326 211 0.971996 -0.048068 0.511693 1
328 211 0.987498 -0.159122 0.524167 1
330 211 1.022040 -0.275762 0.516177 1
332 211 1.081142 -0.400149 0.498160 1
334 211 1.152799 -0.527104 0.461214 1
336 211 1.214707 -0.639729 0.404232 1
338 211 1.264574 -0.738207 0.335486 1
340 211 1.308001 -0.826525 0.266810 1
342 211 1.350677 -0.890331 0.200271 1
344 211 1.395949 -0.926775 0.149308 1
346 211 1.438088 -0.939004 0.110537 1
348 211 1.472202 -0.922857 0.079940 1
350 211 1.497651 -0.890628 0.048965 1
352 211 1.507247 -0.843954 0.012333 1
354 211 1.502134 -0.792266 -0.035717 1
356 211 1.485642 -0.743260 -0.092014 1
358 211 1.459918 -0.692098 -0.139322 1
360 211 1.431995 -0.643176 -0.177338 1
362 211 1.400803 -0.594875 -0.207737 1
364 211 1.358653 -0.546852 -0.231361 1
366 211 1.309149 -0.498735 -0.242046 1
368 211 1.259970 -0.446165 -0.244985 1
370 211 1.224044 -0.383317 -0.245185 1
372 211 1.200423 -0.310400 -0.246170 1
374 211 1.184698 -0.232963 -0.246021 1
376 211 1.172782 -0.153482 -0.238737 1
378 211 1.162391 -0.072080 -0.220600 1
380 211 1.155329 0.010111 -0.201436 1
382 211 1.146896 0.094395 -0.189815 1
384 211 1.134655 0.178090 -0.184869 1
386 211 1.116452 0.255769 -0.179285 1
388 211 1.093690 0.326886 -0.170649 1
390 211 1.067094 0.393280 -0.161609 1
392 211 1.036558 0.454517 -0.152455 1
394 211 1.003785 0.510471 -0.138730 1
396 211 0.971825 0.559004 -0.120021 1
398 211 0.941227 0.599513 -0.103089 1
400 211 0.910664 0.637442 -0.088997 1
402 211 0.886368 0.671735 -0.069107 1
404 211 0.869877 0.699682 -0.039479 1
406 211 0.855649 0.722436 -0.008006 1
408 211 0.850941 0.730369 0.004880 1
410 211 0.000000 0.000000 0.000000 0
412 211 0.000000 0.000000 0.000000 0
414 211 0.000000 0.000000 0.000000 0
416 211 0.000000 0.000000 0.000000 0
418 211 0.000000 0.000000 0.000000 0
420 211 0.000000 0.000000 0.000000 0
422 211 0.000000 0.000000 0.000000 0
424 211 0.000000 0.000000 0.000000 0
426 211 0.000000 0.000000 0.000000 0
428 211 0.000000 0.000000 0.000000 0
430 211 0.000000 0.000000 0.000000 0
432 211 0.000000 0.000000 0.000000 0
434 211 0.000000 0.000000 0.000000 0
436 211 0.000000 0.000000 0.000000 0
438 211 0.000000 0.000000 0.000000 0
440 211 0.000000 0.000000 0.000000 0
442 211 0.000000 0.000000 0.000000 0
444 211 0.000000 0.000000 0.000000 0
446 211 0.000000 0.000000 0.000000 0
308 213 0.000000 0.000000 0.000000 0
310 213 0.000000 0.000000 0.000000 0
312 213 0.000000 0.000000 0.000000 0
314 213 0.000000 0.000000 0.000000 0
316 213 1.030034 0.444712 0.313339 1
318 213 1.070855 0.361631 0.396356 1
320 213 1.159218 0.241069 0.460169 1
322 213 1.241887 0.126673 0.483929 1
324 213 1.281217 0.025777 0.493595 1
326 213 1.291155 -0.072712 0.506208 1
328 213 1.300357 -0.180671 0.503700 1
330 213 1.331251 -0.297807 0.478625 1
332 213 1.389063 -0.424228 0.444381 1
334 213 1.461729 -0.555033 0.391282 1
336 213 1.523581 -0.672026 0.323819 1
338 213 1.569241 -0.775132 0.257176 1
340 213 1.606985 -0.865158 0.203354 1
342 213 1.642540 -0.927404 0.161599 1
344 213 1.681382 -0.958944 0.135911 1
346 213 1.718614 -0.964611 0.117148 1
348 213 1.746963 -0.939560 0.096553 1
350 213 1.767591 -0.899039 0.067142 1
352 213 1.774238 -0.842471 0.032468 1