TITLE = "B00031"
VARIABLES = "X", "Y", "Vx", "Vy", "Vz", "flag"
ZONE T="B00031", I=70, J=78
308 191 0.000000 0.000000 0.000000 0
310 191 0.000000 0.000000 0.000000 0
312 191 0.000000 0.000000 0.000000 0
314 191 0.000000 0.000000 0.000000 0
316 191 0.000000 0.000000 0.000000 0
318 191 0.000000 0.000000 0.000000 0
320 191 0.000000 0.000000 0.000000 0
322 191 0.000000 0.000000 0.000000 0
324 191 0.000000 0.000000 0.000000 0
326 191 0.000000 0.000000 0.000000 0
328 191 0.000000 0.000000 0.000000 0
330 191 0.000000 0.000000 0.000000 0
332 191 0.000000 0.000000 0.000000 0
334 191 0.000000 0.000000 0.000000 0
336 191 0.000000 0.000000 0.000000 0
338 191 0.000000 0.000000 0.000000 0
340 191 0.000000 0.000000 0.000000 0
342 191 0.000000 0.000000 0.000000 0
344 191 0.000000 0.000000 0.000000 0
346 191 0.000000 0.000000 0.000000 0
348 191 0.000000 0.000000 0.000000 0
350 191 0.000000 0.000000 0.000000 0
352 191 0.000000 0.000000 0.000000 0
354 191 0.000000 0.000000 0.000000 0
356 191 0.000000 0.000000 0.000000 0
358 191 0.000000 0.000000 0.000000 0
360 191 0.000000 0.000000 0.000000 0
362 191 0.000000 0.000000 0.000000 0
364 191 0.000000 0.000000 0.000000 0
366 191 0.000000 0.000000 0.000000 0
368 191 0.000000 0.000000 0.000000 0
370 191 0.000000 0.000000 0.000000 0
372 191 0.000000 0.000000 0.000000 0
374 191 0.000000 0.000000 0.000000 0
376 191 0.000000 0.000000 0.000000 0
378 191 0.000000 0.000000 0.000000 0
380 191 0.000000 0.000000 0.000000 0
382 191 0.000000 0.000000 0.000000 0
384 191 0.000000 0.000000 0.000000 0
386 191 0.000000 0.000000 0.000000 0
388 191 0.000000 0.000000 0.000000 0
390 191 0.000000 0.000000 0.000000 0
392 191 0.000000 0.000000 0.000000 0
394 191 0.000000 0.000000 0.000000 0
396 191 0.000000 0.000000 0.000000 0
398 191 0.000000 0.000000 0.000000 0
400 191 0.000000 0.000000 0.000000 0
402 191 0.000000 0.000000 0.000000 0
404 191 0.000000 0.000000 0.000000 0
406 191 0.000000 0.000000 0.000000 0
408 191 0.000000 0.000000 0.000000 0
410 191 0.000000 0.000000 0.000000 0
412 191 0.000000 0.000000 0.000000 0
414 191 0.000000 0.000000 0.000000 0
416 191 0.000000 0.000000 0.000000 0
418 191 0.000000 0.000000 0.000000 0
420 191 0.000000 0.000000 0.000000 0
422 191 0.000000 0.000000 0.000000 0
424 191 0.000000 0.000000 0.000000 0
426 191 0.000000 0.000000 0.000000 0
428 191 0.000000 0.000000 0.000000 0
430 191 0.000000 0.000000 0.000000 0
432 191 0.000000 0.000000 0.000000 0
434 191 0.000000 0.000000 0.000000 0
436 191 0.000000 0.000000 0.000000 0
438 191 0.000000 0.000000 0.000000 0
440 191 0.000000 0.000000 0.000000 0
442 191 0.000000 0.000000 0.000000 0
444 191 0.000000 0.000000 0.000000 0
446 191 0.000000 0.000000 0.000000 0
308 193 0.000000 0.000000 0.000000 0
310 193 0.000000 0.000000 0.000000 0
312 193 0.000000 0.000000 0.000000 0
314 193 0.000000 0.000000 0.000000 0
316 193 0.000000 0.000000 0.000000 0
318 193 0.000000 0.000000 0.000000 0
320 193 0.000000 0.000000 0.000000 0
322 193 0.000000 0.000000 0.000000 0
324 193 0.000000 0.000000 0.000000 0
326 193 0.000000 0.000000 0.000000 0
328 193 0.000000 0.000000 0.000000 0
330 193 0.000000 0.000000 0.000000 0
332 193 0.000000 0.000000 0.000000 0
334 193 0.000000 0.000000 0.000000 0
336 193 0.000000 0.000000 0.000000 0
338 193 0.000000 0.000000 0.000000 0
340 193 0.000000 0.000000 0.000000 0
342 193 0.000000 0.000000 0.000000 0
344 193 0.000000 0.000000 0.000000 0
346 193 0.000000 0.000000 0.000000 0
348 193 0.000000 0.000000 0.000000 0
350 193 0.000000 0.000000 0.000000 0
352 193 0.000000 0.000000 0.000000 0
354 193 0.000000 0.000000 0.000000 0
356 193 0.000000 0.000000 0.000000 0
358 193 0.000000 0.000000 0.000000 0
360 193 0.000000 0.000000 0.000000 0
362 193 0.000000 0.000000 0.000000 0
364 193 0.000000 0.000000 0.000000 0
366 193 0.000000 0.000000 0.000000 0
368 193 0.000000 0.000000 0.000000 0
370 193 0.000000 0.000000 0.000000 0
372 193 0.000000 0.000000 0.000000 0
374 193 0.000000 0.000000 0.000000 0
376 193 0.000000 0.000000 0.000000 0
378 193 0.000000 0.000000 0.000000 0
380 193 0.000000 0.000000 0.000000 0
382 193 0.000000 0.000000 0.000000 0
384 193 0.000000 0.000000 0.000000 0
386 193 0.000000 0.000000 0.000000 0
388 193 0.000000 0.000000 0.000000 0
390 193 0.000000 0.000000 0.000000 0
392 193 0.000000 0.000000 0.000000 0
394 193 0.000000 0.000000 0.000000 0
396 193 0.000000 0.000000 0.000000 0
398 193 0.000000 0.000000 0.000000 0
400 193 0.000000 0.000000 0.000000 0
402 193 0.000000 0.000000 0.000000 0
404 193 0.000000 0.000000 0.000000 0
406 193 0.000000 0.000000 0.000000 0
408 193 0.000000 0.000000 0.000000 0
410 193 0.000000 0.000000 0.000000 0
412 193 0.000000 0.000000 0.000000 0
414 193 0.000000 0.000000 0.000000 0
416 193 0.000000 0.000000 0.000000 0
418 193 0.000000 0.000000 0.000000 0
420 193 0.000000 0.000000 0.000000 0
422 193 0.000000 0.000000 0.000000 0
424 193 0.000000 0.000000 0.000000 0
426 193 0.000000 0.000000 0.000000 0
428 193 0.000000 0.000000 0.000000 0
430 193 0.000000 0.000000 0.000000 0
432 193 0.000000 0.000000 0.000000 0
434 193 0.000000 0.000000 0.000000 0
436 193 0.000000 0.000000 0.000000 0
438 193 0.000000 0.000000 0.000000 0
440 193 0.000000 0.000000 0.000000 0
442 193 0.000000 0.000000 0.000000 0
444 193 0.000000 0.000000 0.000000 0
446 193 0.000000 0.000000 0.000000 0
308 195 0.000000 0.000000 0.000000 0
310 195 0.000000 0.000000 0.000000 0
312 195 0.000000 0.000000 0.000000 0
314 195 0.000000 0.000000 0.000000 0
316 195 0.000000 0.000000 0.000000 0
318 195 0.000000 0.000000 0.000000 0
320 195 0.000000 0.000000 0.000000 0
322 195 0.000000 0.000000 0.000000 0
324 195 0.000000 0.000000 0.000000 0
326 195 0.000000 0.000000 0.000000 0
328 195 0.000000 0.000000 0.000000 0
330 195 0.000000 0.000000 0.000000 0
332 195 0.000000 0.000000 0.000000 0
334 195 0.000000 0.000000 0.000000 0
336 195 0.000000 0.000000 0.000000 0
338 195 0.000000 0.000000 0.000000 0
340 195 0.000000 0.000000 0.000000 0
342 195 0.000000 0.000000 0.000000 0
344 195 0.000000 0.000000 0.000000 0
346 195 0.000000 0.000000 0.000000 0
348 195 0.000000 0.000000 0.000000 0
350 195 0.000000 0.000000 0.000000 0
352 195 0.000000 0.000000 0.000000 0
354 195 0.000000 0.000000 0.000000 0
356 195 0.000000 0.000000 0.000000 0
358 195 0.000000 0.000000 0.000000 0
360 195 0.000000 0.000000 0.000000 0
362 195 0.000000 0.000000 0.000000 0
364 195 0.000000 0.000000 0.000000 0
366 195 0.000000 0.000000 0.000000 0
368 195 0.000000 0.000000 0.000000 0
370 195 0.000000 0.000000 0.000000 0
372 195 0.000000 0.000000 0.000000 0
374 195 0.000000 0.000000 0.000000 0
376 195 0.000000 0.000000 0.000000 0
378 195 0.000000 0.000000 0.000000 0
380 195 0.000000 0.000000 0.000000 0
382 195 0.000000 0.000000 0.000000 0
384 195 0.000000 0.000000 0.000000 0
386 195 0.000000 0.000000 0.000000 0
388 195 0.000000 0.000000 0.000000 0
390 195 0.000000 0.000000 0.000000 0
392 195 0.000000 0.000000 0.000000 0
394 195 0.000000 0.000000 0.000000 0
396 195 0.000000 0.000000 0.000000 0
398 195 0.000000 0.000000 0.000000 0
400 195 0.000000 0.000000 0.000000 0
402 195 0.000000 0.000000 0.000000 0
404 195 0.000000 0.000000 0.000000 0
406 195 0.000000 0.000000 0.000000 0
408 195 0.000000 0.000000 0.000000 0
410 195 0.000000 0.000000 0.000000 0
412 195 0.000000 0.000000 0.000000 0
414 195 0.000000 0.000000 0.000000 0
416 195 0.000000 0.000000 0.000000 0
418 195 0.000000 0.000000 0.000000 0
420 195 0.000000 0.000000 0.000000 0
422 195 0.000000 0.000000 0.000000 0
424 195 0.000000 0.000000 0.000000 0
426 195 0.000000 0.000000 0.000000 0
428 195 0.000000 0.000000 0.000000 0
430 195 0.000000 0.000000 0.000000 0
432 195 0.000000 0.000000 0.000000 0
434 195 0.000000 0.000000 0.000000 0
436 195 0.000000 0.000000 0.000000 0
438 195 0.000000 0.000000 0.000000 0
440 195 0.000000 0.000000 0.000000 0
442 195 0.000000 0.000000 0.000000 0
444 195 0.000000 0.000000 0.000000 0
446 195 0.000000 0.000000 0.000000 0
308 197 0.000000 0.000000 0.000000 0
310 197 0.000000 0.000000 0.000000 0
312 197 0.000000 0.000000 0.000000 0
314 197 0.000000 0.000000 0.000000 0
316 197 0.000000 0.000000 0.000000 0
318 197 0.256352 0.335901 -0.034486 1
320 197 0.211837 0.351631 -0.042089 1
322 197 0.170220 0.399088 -0.041608 1
324 197 0.126963 0.441179 -0.046429 1
326 197 0.083120 0.467780 -0.048429 1
328 197 0.034567 0.487467 -0.058398 1
330 197 -0.023753 0.501161 -0.079319 1
332 197 -0.084417 0.494390 -0.094971 1
334 197 -0.142156 0.471885 -0.092075 1
336 197 -0.199903 0.441026 -0.080232 1
338 197 -0.258539 0.403096 -0.056006 1
340 197 -0.304600 0.357525 -0.022303 1
342 197 -0.337829 0.302533 -0.001323 1
344 197 -0.361047 0.229199 0.000706 1
346 197 -0.374637 0.139386 0.002015 1
348 197 -0.375324 0.039143 0.006071 1
350 197 -0.369979 -0.058829 0.004428 1
352 197 -0.349311 -0.160039 0.002109 1
354 197 -0.313468 -0.263976 0.006123 1
356 197 -0.268666 -0.363871 0.016261 1
358 197 -0.212470 -0.462305 0.025925 1
360 197 -0.157020 -0.546373 0.020798 1
362 197 -0.107643 -0.602245 -0.018682 1
364 197 -0.059125 -0.653076 -0.073591 1
366 197 0.000497 -0.707481 -0.110824 1
368 197 0.079264 -0.753957 -0.124466 1
370 197 0.166428 -0.792659 -0.131516 1
372 197 0.239073 -0.805265 -0.148533 1
374 197 0.297543 -0.793607 -0.179692 1
376 197 0.347386 -0.762780 -0.223228 1
378 197 0.393331 -0.721025 -0.262951 1
380 197 0.443999 -0.681344 -0.273835 1
382 197 0.500976 -0.643827 -0.253126 1
384 197 0.562917 -0.605610 -0.215286 1
386 197 0.620515 -0.562405 -0.192264 1
388 197 0.674774 -0.510028 -0.197143 1
390 197 0.724937 -0.448228 -0.227999 1
392 197 0.764841 -0.381663 -0.252379 1
394 197 0.792991 -0.317905 -0.257655 1
396 197 0.814190 -0.261034 -0.247975 1
398 197 0.828947 -0.202650 -0.234175 1
400 197 0.834821 -0.127819 -0.212707 1
402 197 0.831867 -0.054109 -0.170164 1
404 197 0.889154 -0.040860 -0.185509 1
406 197 0.000000 0.000000 0.000000 0
408 197 0.000000 0.000000 0.000000 0
410 197 0.000000 0.000000 0.000000 0
412 197 0.000000 0.000000 0.000000 0
414 197 0.000000 0.000000 0.000000 0
416 197 0.000000 0.000000 0.000000 0
418 197 0.000000 0.000000 0.000000 0
420 197 0.000000 0.000000 0.000000 0
422 197 0.000000 0.000000 0.000000 0
424 197 0.000000 0.000000 0.000000 0
426 197 0.000000 0.000000 0.000000 0
428 197 0.000000 0.000000 0.000000 0
430 197 0.000000 0.000000 0.000000 0
432 197 0.000000 0.000000 0.000000 0
434 197 0.000000 0.000000 0.000000 0
436 197 0.000000 0.000000 0.000000 0
438 197 0.000000 0.000000 0.000000 0
440 197 0.000000 0.000000 0.000000 0
442 197 0.000000 0.000000 0.000000 0
444 197 0.000000 0.000000 0.000000 0
446 197 0.000000 0.000000 0.000000 0
308 199 0.000000 0.000000 0.000000 0
310 199 0.000000 0.000000 0.000000 0
312 199 0.000000 0.000000 0.000000 0
314 199 0.000000 0.000000 0.000000 0
316 199 0.342343 0.310146 -0.026599 1
318 199 0.306126 0.343271 -0.027454 1
320 199 0.269977 0.401919 -0.021453 1
322 199 0.229130 0.461531 -0.013801 1
324 199 0.185195 0.518434 -0.007366 1
326 199 0.138989 0.556430 0.006667 1
328 199 0.087317 0.585683 0.022064 1
330 199 0.026804 0.604016 0.026173 1
332 199 -0.035441 0.597692 0.027317 1
334 199 -0.089826 0.568594 0.037115 1
336 199 -0.138295 0.525735 0.049304 1
338 199 -0.177147 0.466471 0.071960 1
340 199 -0.201707 0.400351 0.104019 1
342 199 -0.212053 0.325069 0.125021 1
344 199 -0.217182 0.236051 0.135853 1
346 199 -0.216002 0.132848 0.149599 1
348 199 -0.203349 0.019133 0.165885 1
350 199 -0.189055 -0.089674 0.168786 1
352 199 -0.161134 -0.201720 0.162630 1
354 199 -0.120147 -0.314124 0.156794 1
356 199 -0.069092 -0.423695 0.155117 1
358 199 -0.004702 -0.534144 0.155504 1
360 199 0.060567 -0.631589 0.143471 1
362 199 0.120695 -0.701480 0.096441 1
364 199 0.175649 -0.760390 0.033573 1
366 199 0.236677 -0.817297 -0.012246 1
368 199 0.311319 -0.860735 -0.030497 1
370 199 0.391277 -0.894069 -0.040170 1
372 199 0.455845 -0.901185 -0.061512 1
374 199 0.506708 -0.886243 -0.100950 1
376 199 0.546350 -0.855013 -0.162553 1
378 199 0.579507 -0.813410 -0.225654 1
380 199 0.611737 -0.772304 -0.268811 1
382 199 0.649355 -0.731019 -0.278043 1
384 199 0.690836 -0.687068 -0.265602 1
386 199 0.729218 -0.636756 -0.251779 1
388 199 0.770367 -0.578201 -0.247616 1
390 199 0.811590 -0.510502 -0.254830 1
392 199 0.848178 -0.439346 -0.261971 1
394 199 0.876454 -0.369313 -0.258807 1
396 199 0.900916 -0.304672 -0.254660 1
398 199 0.921163 -0.238554 -0.255896 1
400 199 0.933428 -0.159102 -0.255830 1
402 199 0.936746 -0.082533 -0.233354 1
404 199 0.933116 -0.020268 -0.184051 1
406 199 0.983581 -0.004302 -0.188416 1
408 199 0.000000 0.000000 0.000000 0
410 199 0.000000 0.000000 0.000000 0
412 199 0.000000 0.000000 0.000000 0
414 199 0.000000 0.000000 0.000000 0
416 199 0.000000 0.000000 0.000000 0
418 199 0.000000 0.000000 0.000000 0
420 199 0.000000 0.000000 0.000000 0
422 199 0.000000 0.000000 0.000000 0
424 199 0.000000 0.000000 0.000000 0
426 199 0.000000 0.000000 0.000000 0
428 199 0.000000 0.000000 0.000000 0
430 199 0.000000 0.000000 0.000000 0
432 199 0.000000 0.000000 0.000000 0
434 199 0.000000 0.000000 0.000000 0
436 199 0.000000 0.000000 0.000000 0
438 199 0.000000 0.000000 0.000000 0
440 199 0.000000 0.000000 0.000000 0
442 199 0.000000 0.000000 0.000000 0
444 199 0.000000 0.000000 0.000000 0
446 199 0.000000 0.000000 0.000000 0
308 201 0.000000 0.000000 0.000000 0
310 201 0.000000 0.000000 0.000000 0
312 201 0.000000 0.000000 0.000000 0
314 201 0.000000 0.000000 0.000000 0
316 201 0.381968 0.331357 -0.034653 1
318 201 0.365115 0.379741 -0.030013 1
320 201 0.332061 0.449268 -0.019182 1
322 201 0.292301 0.521009 -0.008713 1
324 201 0.249652 0.587474 -0.000322 1
326 201 0.206814 0.633204 0.021224 1
328 201 0.159875 0.665691 0.050946 1
330 201 0.107167 0.683785 0.077569 1
332 201 0.051689 0.674895 0.102055 1
334 201 0.007115 0.638436 0.128610 1
336 201 -0.025512 0.582323 0.149700 1
338 201 -0.044676 0.507173 0.176353 1
340 201 -0.043839 0.421712 0.217903 1
342 201 -0.033902 0.331066 0.255273 1
344 201 -0.023060 0.229191 0.294179 1
346 201 -0.009153 0.115167 0.333043 1
348 201 0.012180 -0.007018 0.364810 1
350 201 0.031319 -0.124682 0.373572 1
352 201 0.058212 -0.243282 0.361750 1
354 201 0.094091 -0.361913 0.339948 1
356 201 0.141634 -0.477174 0.322128 1
358 201 0.205157 -0.596146 0.309966 1
360 201 0.274913 -0.705725 0.292010 1
362 201 0.341967 -0.787990 0.245546 1
364 201 0.405795 -0.856848 0.180855 1
366 201 0.471475 -0.915689 0.128318 1
368 201 0.546421 -0.954740 0.099806 1
370 201 0.623596 -0.982039 0.082590 1
372 201 0.686241 -0.982915 0.056368 1
374 201 0.735119 -0.963794 0.011852 1
376 201 0.771714 -0.931456 -0.058397 1
378 201 0.793517 -0.889187 -0.142590 1
380 201 0.808657 -0.845668 -0.214065 1
382 201 0.821239 -0.798749 -0.261570 1
384 201 0.837847 -0.748448 -0.281581 1
386 201 0.852369 -0.693281 -0.286323 1
388 201 0.873836 -0.631267 -0.279448 1
390 201 0.902146 -0.562220 -0.271055 1
392 201 0.929184 -0.489679 -0.260036 1
394 201 0.952930 -0.416793 -0.249056 1
396 201 0.975130 -0.345955 -0.246304 1
398 201 0.995859 -0.273141 -0.255437 1
400 201 1.010579 -0.188759 -0.265543 1
402 201 1.019233 -0.106860 -0.257191 1
404 201 1.022479 -0.037917 -0.223471 1
406 201 1.023691 0.020111 -0.184314 1
408 201 1.065935 0.036103 -0.187767 1
410 201 0.000000 0.000000 0.000000 0
412 201 0.000000 0.000000 0.000000 0
414 201 0.000000 0.000000 0.000000 0
416 201 0.000000 0.000000 0.000000 0
418 201 0.000000 0.000000 0.000000 0
420 201 0.000000 0.000000 0.000000 0
422 201 0.000000 0.000000 0.000000 0
424 201 0.000000 0.000000 0.000000 0
426 201 0.000000 0.000000 0.000000 0
428 201 0.000000 0.000000 0.000000 0
430 201 0.000000 0.000000 0.000000 0
432 201 0.000000 0.000000 0.000000 0
434 201 0.000000 0.000000 0.000000 0
436 201 0.000000 0.000000 0.000000 0
438 201 0.000000 0.000000 0.000000 0
440 201 0.000000 0.000000 0.000000 0
442 201 0.000000 0.000000 0.000000 0
444 201 0.000000 0.000000 0.000000 0
446 201 0.000000 0.000000 0.000000 0
308 203 0.000000 0.000000 0.000000 0
310 203 0.000000 0.000000 0.000000 0
312 203 0.000000 0.000000 0.000000 0
314 203 0.000000 0.000000 0.000000 0
316 203 0.437331 0.354688 -0.047652 1
318 203 0.426269 0.407861 -0.040771 1
320 203 0.398021 0.486164 -0.028652 1
322 203 0.360752 0.566643 -0.017075 1
324 203 0.323278 0.640392 -0.004054 1
326 203 0.289209 0.689110 0.022414 1
328 203 0.256896 0.720354 0.059628 1
330 203 0.219019 0.733857 0.096190 1
332 203 0.179227 0.717551 0.136697 1
334 203 0.149492 0.671366 0.179925 1
336 203 0.131928 0.604566 0.212789 1
338 203 0.130533 0.517268 0.247315 1
340 203 0.146876 0.421739 0.301350 1
342 203 0.172635 0.320041 0.366070 1
344 203 0.192519 0.211424 0.431899 1
346 203 0.213068 0.093625 0.490459 1
348 203 0.236650 -0.028344 0.525143 1
350 203 0.253980 -0.146152 0.530267 1
352 203 0.272876 -0.267102 0.509419 1
354 203 0.297438 -0.389102 0.478194 1
356 203 0.330675 -0.509045 0.447695 1
358 203 0.384326 -0.634397 0.426733 1
360 203 0.448951 -0.754250 0.405925 1
362 203 0.516948 -0.849174 0.366230 1
364 203 0.587140 -0.928239 0.308263 1
366 203 0.662649 -0.991118 0.254500 1
368 203 0.743932 -1.027147 0.219021 1
370 203 0.825698 -1.047821 0.191721 1
372 203 0.892274 -1.041568 0.160321 1
374 203 0.945310 -1.015417 0.114891 1
376 203 0.984464 -0.977438 0.045581 1
378 203 1.003160 -0.930366 -0.042157 1
380 203 1.005051 -0.880978 -0.131034 1
382 203 0.999923 -0.829201 -0.204008 1
384 203 0.992472 -0.774805 -0.258913 1
386 203 0.985023 -0.719207 -0.289138 1
388 203 0.985666 -0.658524 -0.294042 1
390 203 0.996229 -0.591889 -0.282175 1
392 203 1.011216 -0.521508 -0.263549 1
394 203 1.025909 -0.449157 -0.246147 1
396 203 1.043880 -0.376127 -0.240942 1
398 203 1.062584 -0.299567 -0.248004 1
400 203 1.077398 -0.212054 -0.257375 1
402 203 1.088660 -0.125415 -0.253861 1
404 203 1.096441 -0.050145 -0.232620 1
406 203 1.100882 0.011579 -0.207013 1
408 203 1.101486 0.033361 -0.197212 1
410 203 0.000000 0.000000 0.000000 0
412 203 0.000000 0.000000 0.000000 0
414 203 0.000000 0.000000 0.000000 0
416 203 0.000000 0.000000 0.000000 0
418 203 0.000000 0.000000 0.000000 0
420 203 0.000000 0.000000 0.000000 0
422 203 0.000000 0.000000 0.000000 0
424 203 0.000000 0.000000 0.000000 0
426 203 0.000000 0.000000 0.000000 0
428 203 0.000000 0.000000 0.000000 0
430 203 0.000000 0.000000 0.000000 0
432 203 0.000000 0.000000 0.000000 0
434 203 0.000000 0.000000 0.000000 0
436 203 0.000000 0.000000 0.000000 0
438 203 0.000000 0.000000 0.000000 0
440 203 0.000000 0.000000 0.000000 0
442 203 0.000000 0.000000 0.000000 0
444 203 0.000000 0.000000 0.000000 0
446 203 0.000000 0.000000 0.000000 0
308 205 0.000000 0.000000 0.000000 0
310 205 0.000000 0.000000 0.000000 0
312 205 0.000000 0.000000 0.000000 0
314 205 0.000000 0.000000 0.000000 0
316 205 0.499566 0.372334 -0.052656 1
318 205 0.492892 0.429165 -0.044737 1
320 205 0.472792 0.514208 -0.034492 1
322 205 0.443279 0.600602 -0.019956 1
324 205 0.417171 0.678264 0.003479 1
326 205 0.399471 0.727466 0.038728 1
328 205 0.383976 0.755254 0.080288 1
330 205 0.368132 0.759773 0.124342 1
332 205 0.347524 0.733039 0.176680 1
334 205 0.337287 0.674662 0.237836 1
336 205 0.335105 0.598679 0.283539 1
338 205 0.345215 0.505519 0.324581 1
340 205 0.370215 0.405941 0.385801 1
342 205 0.401207 0.301682 0.461062 1
344 205 0.424275 0.194390 0.531134 1
346 205 0.445617 0.081626 0.582409 1
348 205 0.466874 -0.031689 0.595536 1
350 205 0.480210 -0.144376 0.583494 1
352 205 0.492643 -0.265351 0.554926 1
354 205 0.505389 -0.391762 0.522579 1
356 205 0.524717 -0.517177 0.488545 1
358 205 0.563231 -0.651261 0.457828 1
360 205 0.618406 -0.781533 0.433416 1
362 205 0.681808 -0.889835 0.397414 1
364 205 0.754384 -0.981141 0.345683 1
366 205 0.836362 -1.050388 0.298743 1
368 205 0.924296 -1.085570 0.267946 1
370 205 1.010872 -1.101264 0.238457 1
372 205 1.082186 -1.085846 0.203706 1
374 205 1.139820 -1.050420 0.159909 1
376 205 1.182701 -1.002967 0.100966 1
378 205 1.202314 -0.946849 0.028835 1
380 205 1.201058 -0.889887 -0.048885 1
382 205 1.186830 -0.831251 -0.123682 1
384 205 1.166866 -0.773738 -0.195451 1
386 205 1.142648 -0.718753 -0.251925 1
388 205 1.125104 -0.661290 -0.278538 1
390 205 1.116828 -0.599022 -0.280509 1
392 205 1.114474 -0.533604 -0.268340 1
394 205 1.117000 -0.464844 -0.253075 1
396 205 1.125451 -0.393676 -0.245091 1
398 205 1.139322 -0.317441 -0.245820 1
400 205 1.149716 -0.230015 -0.249914 1
402 205 1.158535 -0.141489 -0.249382 1
404 205 1.164841 -0.063176 -0.238552 1
406 205 1.167941 0.000657 -0.224014 1
408 205 1.168566 0.022596 -0.218326 1
410 205 0.000000 0.000000 0.000000 0
412 205 0.000000 0.000000 0.000000 0
414 205 0.000000 0.000000 0.000000 0
416 205 0.000000 0.000000 0.000000 0
418 205 0.000000 0.000000 0.000000 0
420 205 0.000000 0.000000 0.000000 0
422 205 0.000000 0.000000 0.000000 0
424 205 0.000000 0.000000 0.000000 0
426 205 0.000000 0.000000 0.000000 0
428 205 0.000000 0.000000 0.000000 0
430 205 0.000000 0.000000 0.000000 0
432 205 0.000000 0.000000 0.000000 0
434 205 0.000000 0.000000 0.000000 0
436 205 0.000000 0.000000 0.000000 0
438 205 0.000000 0.000000 0.000000 0
440 205 0.000000 0.000000 0.000000 0
442 205 0.000000 0.000000 0.000000 0
444 205 0.000000 0.000000 0.000000 0
446 205 0.000000 0.000000 0.000000 0
308 207 0.000000 0.000000 0.000000 0
310 207 0.000000 0.000000 0.000000 0
312 207 0.000000 0.000000 0.000000 0
314 207 0.000000 0.000000 0.000000 0
316 207 0.585002 0.383417 -0.049326 1
318 207 0.577011 0.445544 -0.039654 1
320 207 0.564654 0.536533 -0.033328 1
322 207 0.546655 0.628324 -0.018355 1
324 207 0.534601 0.709158 0.015856 1
326 207 0.533074 0.758458 0.060953 1
328 207 0.535503 0.781600 0.109109 1
330 207 0.536746 0.777543 0.161881 1
332 207 0.538038 0.736977 0.231915 1
334 207 0.545324 0.666914 0.313488 1
336 207 0.558439 0.582215 0.377812 1
338 207 0.577493 0.486337 0.425947 1
340 207 0.605054 0.388428 0.482508 1
342 207 0.634872 0.288439 0.545336 1
344 207 0.656816 0.187531 0.596819 1
346 207 0.677511 0.083851 0.620837 1
348 207 0.697728 -0.022188 0.607657 1
350 207 0.710110 -0.130929 0.575730 1
352 207 0.720348 -0.253308 0.542230 1
354 207 0.728337 -0.384354 0.511159 1
356 207 0.737992 -0.517107 0.470265 1
358 207 0.767899 -0.659389 0.426911 1
360 207 0.815900 -0.801690 0.393642 1
362 207 0.875382 -0.922574 0.352129 1
364 207 0.945928 -1.027182 0.297378 1
366 207 1.028036 -1.105623 0.257942 1
368 207 1.115106 -1.143281 0.242803 1
370 207 1.200767 -1.155589 0.224476 1
372 207 1.270812 -1.132835 0.192777 1
374 207 1.327577 -1.086734 0.152884 1
376 207 1.369690 -1.029446 0.105622 1
378 207 1.389452 -0.963455 0.054826 1
380 207 1.389395 -0.896905 0.003210 1
382 207 1.376024 -0.829822 -0.052527 1
384 207 1.353131 -0.764559 -0.118993 1
386 207 1.322537 -0.706681 -0.185219 1
388 207 1.292234 -0.650274 -0.232442 1
390 207 1.267559 -0.591863 -0.254486 1
392 207 1.246614 -0.532124 -0.259035 1
394 207 1.230979 -0.469403 -0.254954 1
396 207 1.226079 -0.402357 -0.250182 1
398 207 1.228343 -0.329535 -0.246926 1
400 207 1.230710 -0.244418 -0.247801 1
402 207 1.232235 -0.157020 -0.250414 1
404 207 1.233199 -0.077890 -0.249605 1
406 207 1.232532 -0.012576 -0.244041 1
408 207 1.233607 0.010433 -0.239821 1
410 207 0.000000 0.000000 0.000000 0
412 207 0.000000 0.000000 0.000000 0
414 207 0.000000 0.000000 0.000000 0
416 207 0.000000 0.000000 0.000000 0
418 207 0.000000 0.000000 0.000000 0
420 207 0.000000 0.000000 0.000000 0
422 207 0.000000 0.000000 0.000000 0
424 207 0.000000 0.000000 0.000000 0
426 207 0.000000 0.000000 0.000000 0
428 207 0.000000 0.000000 0.000000 0
430 207 0.000000 0.000000 0.000000 0
432 207 0.000000 0.000000 0.000000 0
434 207 0.000000 0.000000 0.000000 0
436 207 0.000000 0.000000 0.000000 0
438 207 0.000000 0.000000 0.000000 0
440 207 0.000000 0.000000 0.000000 0
442 207 0.000000 0.000000 0.000000 0
444 207 0.000000 0.000000 0.000000 0
446 207 0.000000 0.000000 0.000000 0
308 209 0.000000 0.000000 0.000000 0
310 209 0.000000 0.000000 0.000000 0
312 209 0.000000 0.000000 0.000000 0
314 209 0.000000 0.000000 0.000000 0
316 209 0.715338 0.378923 -0.042833 1
318 209 0.707401 0.448477 -0.034687 1
320 209 0.705578 0.548004 -0.036200 1
322 209 0.699754 0.643756 -0.024440 1
324 209 0.701950 0.726425 0.014940 1
326 209 0.714814 0.774665 0.066199 1
328 209 0.730851 0.793383 0.119936 1
330 209 0.747494 0.780714 0.183274 1
332 209 0.763340 0.730682 0.268105 1
334 209 0.785771 0.651117 0.371106 1
336 209 0.808271 0.562297 0.451277 1
338 209 0.831701 0.468544 0.504016 1
340 209 0.855965 0.378115 0.543505 1
342 209 0.879610 0.286941 0.576572 1
344 209 0.899319 0.194234 0.594702 1
346 209 0.921770 0.095700 0.594321 1
348 209 0.946437 -0.008810 0.562251 1
350 209 0.962581 -0.119266 0.523911 1
352 209 0.975060 -0.245731 0.493911 1
354 209 0.983458 -0.381827 0.461968 1
356 209 0.991804 -0.520077 0.410073 1
358 209 1.019278 -0.669474 0.357035 1
360 209 1.065254 -0.819383 0.320333 1
362 209 1.119537 -0.950428 0.271025 1
364 209 1.182817 -1.064998 0.210031 1
366 209 1.255910 -1.151696 0.178099 1
368 209 1.333034 -1.192530 0.181485 1
370 209 1.409606 -1.203804 0.177792 1
372 209 1.468664 -1.175339 0.154537 1
374 209 1.516305 -1.121992 0.120981 1
376 209 1.549716 -1.055287 0.085463 1
378 209 1.566265 -0.979769 0.052158 1
380 209 1.567360 -0.902884 0.023639 1
382 209 1.558042 -0.824502 -0.007927 1
384 209 1.538992 -0.749101 -0.056627 1
386 209 1.510296 -0.683008 -0.114506 1
388 209 1.476839 -0.624292 -0.167119 1
390 209 1.442087 -0.567789 -0.204477 1
392 209 1.405875 -0.513431 -0.226457 1
394 209 1.372164 -0.457378 -0.237853 1
396 209 1.348886 -0.396942 -0.242515 1
398 209 1.336883 -0.329552 -0.241853 1
400 209 1.325457 -0.250512 -0.244011 1
402 209 1.317924 -0.167012 -0.250554 1
404 209 1.311216 -0.089855 -0.257806 1
406 209 1.306044 -0.023681 -0.258286 1
408 209 1.305376 0.000056 -0.255570 1
410 209 0.000000 0.000000 0.000000 0
412 209 0.000000 0.000000 0.000000 0
414 209 0.000000 0.000000 0.000000 0
416 209 0.000000 0.000000 0.000000 0
418 209 0.000000 0.000000 0.000000 0
420 209 0.000000 0.000000 0.000000 0
422 209 0.000000 0.000000 0.000000 0
424 209 0.000000 0.000000 0.000000 0
426 209 0.000000 0.000000 0.000000 0
428 209 0.000000 0.000000 0.000000 0
430 209 0.000000 0.000000 0.000000 0
432 209 0.000000 0.000000 0.000000 0
434 209 0.000000 0.000000 0.000000 0
436 209 0.000000 0.000000 0.000000 0
438 209 0.000000 0.000000 0.000000 0
440 209 0.000000 0.000000 0.000000 0
442 209 0.000000 0.000000 0.000000 0
444 209 0.000000 0.000000 0.000000 0
446 209 0.000000 0.000000 0.000000 0
308 211 0.000000 0.000000 0.000000 0
310 211 0.000000 0.000000 0.000000 0
312 211 0.000000 0.000000 0.000000 0
314 211 0.000000 0.000000 0.000000 0
316 211 0.859099 0.358677 -0.025065 1
318 211 0.852172 0.439013 -0.023198 1
320 211 0.862810 0.547963 -0.033200 1
322 211 0.876504 0.647989 -0.029209 1
324 211 0.892321 0.730545 0.010357 1
326 211 0.919707 0.777052 0.065694 1
328 211 0.949002 0.792441 0.123619 1
330 211 0.978213 0.775912 0.192069 1
332 211 1.007800 0.721248 0.285677 1
334 211 1.040365 0.639422 0.397959 1
336 211 1.070837 0.550299 0.488549 1
338 211 1.096277 0.460510 0.541714 1
340 211 1.116729 0.376219 0.566787 1
342 211 1.133758 0.290425 0.574159 1
344 211 1.151757 0.200124 0.569753 1
346 211 1.178651 0.102668 0.550886 1
348 211 1.211048 -0.003625 0.511771 1
350 211 1.236489 -0.117525 0.474120 1
352 211 1.254887 -0.247321 0.448752 1
354 211 1.268817 -0.386475 0.411126 1
356 211 1.281552 -0.527838 0.345792 1
358 211 1.310567 -0.680501 0.287169 1
360 211 1.354608 -0.836061 0.249969 1
362 211 1.401832 -0.973474 0.199044 1
364 211 1.453081 -1.096036 0.140467 1
366 211 1.514000 -1.188459 0.117008 1
368 211 1.577332 -1.231610 0.129734 1
370 211 1.639482 -1.242641 0.135040 1
372 211 1.683865 -1.211861 0.118617 1
374 211 1.714964 -1.153654 0.093854 1
376 211 1.736100 -1.080739 0.066951 1
378 211 1.743943 -0.996006 0.045529 1
380 211 1.741943 -0.909677 0.030970 1
382 211 1.732294 -0.821328 0.014662 1
384 211 1.716095 -0.734553 -0.016686 1
386 211 1.691287 -0.658824 -0.061371 1
388 211 1.660878 -0.592712 -0.106614 1
390 211 1.624426 -0.534253 -0.146654 1
392 211 1.579802 -0.482216 -0.178924 1
394 211 1.531684 -0.431550 -0.204082 1
396 211 1.490731 -0.377837 -0.221968 1
398 211 1.459980 -0.318331 -0.231355 1
400 211 1.433730 -0.246622 -0.239605 1
402 211 1.412248 -0.170480 -0.250969 1
404 211 1.396792 -0.097111 -0.262339 1
406 211 1.385401 -0.031503 -0.265750 1
408 211 1.383201 -0.006453 -0.263985 1
410 211 0.000000 0.000000 0.000000 0
412 211 0.000000 0.000000 0.000000 0
414 211 0.000000 0.000000 0.000000 0
416 211 0.000000 0.000000 0.000000 0
418 211 0.000000 0.000000 0.000000 0
420 211 0.000000 0.000000 0.000000 0
422 211 0.000000 0.000000 0.000000 0
424 211 0.000000 0.000000 0.000000 0
426 211 0.000000 0.000000 0.000000 0
428 211 0.000000 0.000000 0.000000 0
430 211 0.000000 0.000000 0.000000 0
432 211 0.000000 0.000000 0.000000 0
434 211 0.000000 0.000000 0.000000 0
436 211 0.000000 0.000000 0.000000 0
438 211 0.000000 0.000000 0.000000 0
440 211 0.000000 0.000000 0.000000 0
442 211 0.000000 0.000000 0.000000 0
444 211 0.000000 0.000000 0.000000 0
446 211 0.000000 0.000000 0.000000 0
308 213 0.000000 0.000000 0.000000 0
310 213 0.000000 0.000000 0.000000 0
312 213 0.000000 0.000000 0.000000 0
314 213 0.000000 0.000000 0.000000 0
316 213 1.012258 0.319178 0.002792 1
318 213 1.004719 0.411392 -0.003274 1
320 213 1.036791 0.531862 -0.023034 1
322 213 1.074150 0.635613 -0.027161 1
324 213 1.108927 0.716663 0.006940 1
326 213 1.148786 0.761347 0.062922 1
328 213 1.190222 0.775399 0.123225 1
330 213 1.229241 0.759562 0.192027 1
332 213 1.268132 0.707753 0.283937 1
334 213 1.308870 0.631457 0.392488 1
336 213 1.343801 0.547138 0.480207 1
338 213 1.370179 0.461560 0.529938 1
340 213 1.388044 0.377541 0.551253 1
342 213 1.400904 0.289583 0.551748 1
344 213 1.416862 0.196955 0.538941 1
346 213 1.445497 0.097538 0.513615 1
348 213 1.485275 -0.011259 0.474167 1
350 213 1.520046 -0.127099 0.440673 1
352 213 1.548532 -0.258168 0.415612 1
354 213 1.570920 -0.397959 0.365706 1
356 213 1.591589 -0.539809 0.288750 1