TITLE = "B00011"
VARIABLES = "X", "Y", "Vx", "Vy", "Vz", "flag"
ZONE T="B00011", I=70, J=78
308 191 0.000000 0.000000 0.000000 0
310 191 0.000000 0.000000 0.000000 0
312 191 0.000000 0.000000 0.000000 0
314 191 0.000000 0.000000 0.000000 0
316 191 0.000000 0.000000 0.000000 0
318 191 0.000000 0.000000 0.000000 0
320 191 0.000000 0.000000 0.000000 0
322 191 0.000000 0.000000 0.000000 0
324 191 0.000000 0.000000 0.000000 0
326 191 0.000000 0.000000 0.000000 0
328 191 0.000000 0.000000 0.000000 0
330 191 0.000000 0.000000 0.000000 0
332 191 0.000000 0.000000 0.000000 0
334 191 0.000000 0.000000 0.000000 0
336 191 0.000000 0.000000 0.000000 0
338 191 0.000000 0.000000 0.000000 0
340 191 0.000000 0.000000 0.000000 0
342 191 0.000000 0.000000 0.000000 0
344 191 0.000000 0.000000 0.000000 0
346 191 0.000000 0.000000 0.000000 0
348 191 0.000000 0.000000 0.000000 0
350 191 0.000000 0.000000 0.000000 0
352 191 0.000000 0.000000 0.000000 0
354 191 0.000000 0.000000 0.000000 0
356 191 0.000000 0.000000 0.000000 0
358 191 0.000000 0.000000 0.000000 0
360 191 0.000000 0.000000 0.000000 0
362 191 0.000000 0.000000 0.000000 0
364 191 0.000000 0.000000 0.000000 0
366 191 0.000000 0.000000 0.000000 0
368 191 0.000000 0.000000 0.000000 0
370 191 0.000000 0.000000 0.000000 0
372 191 0.000000 0.000000 0.000000 0
374 191 0.000000 0.000000 0.000000 0
376 191 0.000000 0.000000 0.000000 0
378 191 0.000000 0.000000 0.000000 0
380 191 0.000000 0.000000 0.000000 0
382 191 0.000000 0.000000 0.000000 0
384 191 0.000000 0.000000 0.000000 0
386 191 0.000000 0.000000 0.000000 0
388 191 0.000000 0.000000 0.000000 0
390 191 0.000000 0.000000 0.000000 0
392 191 0.000000 0.000000 0.000000 0
394 191 0.000000 0.000000 0.000000 0
396 191 0.000000 0.000000 0.000000 0
398 191 0.000000 0.000000 0.000000 0
400 191 0.000000 0.000000 0.000000 0
402 191 0.000000 0.000000 0.000000 0
404 191 0.000000 0.000000 0.000000 0
406 191 0.000000 0.000000 0.000000 0
408 191 0.000000 0.000000 0.000000 0
410 191 0.000000 0.000000 0.000000 0
412 191 0.000000 0.000000 0.000000 0
414 191 0.000000 0.000000 0.000000 0
416 191 0.000000 0.000000 0.000000 0
418 191 0.000000 0.000000 0.000000 0
420 191 0.000000 0.000000 0.000000 0
422 191 0.000000 0.000000 0.000000 0
424 191 0.000000 0.000000 0.000000 0
426 191 0.000000 0.000000 0.000000 0
428 191 0.000000 0.000000 0.000000 0
430 191 0.000000 0.000000 0.000000 0
432 191 0.000000 0.000000 0.000000 0
434 191 0.000000 0.000000 0.000000 0
436 191 0.000000 0.000000 0.000000 0
438 191 0.000000 0.000000 0.000000 0
440 191 0.000000 0.000000 0.000000 0
442 191 0.000000 0.000000 0.000000 0
444 191 0.000000 0.000000 0.000000 0
446 191 0.000000 0.000000 0.000000 0
308 193 0.000000 0.000000 0.000000 0
310 193 0.000000 0.000000 0.000000 0
312 193 0.000000 0.000000 0.000000 0
314 193 0.000000 0.000000 0.000000 0
316 193 0.000000 0.000000 0.000000 0
318 193 0.000000 0.000000 0.000000 0
320 193 0.000000 0.000000 0.000000 0
322 193 0.000000 0.000000 0.000000 0
324 193 0.000000 0.000000 0.000000 0
326 193 0.000000 0.000000 0.000000 0
328 193 0.000000 0.000000 0.000000 0
330 193 0.000000 0.000000 0.000000 0
332 193 0.000000 0.000000 0.000000 0
334 193 0.000000 0.000000 0.000000 0
336 193 0.000000 0.000000 0.000000 0
338 193 0.000000 0.000000 0.000000 0
340 193 0.000000 0.000000 0.000000 0
342 193 0.000000 0.000000 0.000000 0
344 193 0.000000 0.000000 0.000000 0
346 193 0.000000 0.000000 0.000000 0
348 193 0.000000 0.000000 0.000000 0
350 193 0.000000 0.000000 0.000000 0
352 193 0.000000 0.000000 0.000000 0
354 193 0.000000 0.000000 0.000000 0
356 193 0.000000 0.000000 0.000000 0
358 193 0.000000 0.000000 0.000000 0
360 193 0.000000 0.000000 0.000000 0
362 193 0.000000 0.000000 0.000000 0
364 193 0.000000 0.000000 0.000000 0
366 193 0.000000 0.000000 0.000000 0
368 193 0.000000 0.000000 0.000000 0
370 193 0.000000 0.000000 0.000000 0
372 193 0.000000 0.000000 0.000000 0
374 193 0.000000 0.000000 0.000000 0
376 193 0.000000 0.000000 0.000000 0
378 193 0.000000 0.000000 0.000000 0
380 193 0.000000 0.000000 0.000000 0
382 193 0.000000 0.000000 0.000000 0
384 193 0.000000 0.000000 0.000000 0
386 193 0.000000 0.000000 0.000000 0
388 193 0.000000 0.000000 0.000000 0
390 193 0.000000 0.000000 0.000000 0
392 193 0.000000 0.000000 0.000000 0
394 193 0.000000 0.000000 0.000000 0
396 193 0.000000 0.000000 0.000000 0
398 193 0.000000 0.000000 0.000000 0
400 193 0.000000 0.000000 0.000000 0
402 193 0.000000 0.000000 0.000000 0
404 193 0.000000 0.000000 0.000000 0
406 193 0.000000 0.000000 0.000000 0
408 193 0.000000 0.000000 0.000000 0
410 193 0.000000 0.000000 0.000000 0
412 193 0.000000 0.000000 0.000000 0
414 193 0.000000 0.000000 0.000000 0
416 193 0.000000 0.000000 0.000000 0
418 193 0.000000 0.000000 0.000000 0
420 193 0.000000 0.000000 0.000000 0
422 193 0.000000 0.000000 0.000000 0
424 193 0.000000 0.000000 0.000000 0
426 193 0.000000 0.000000 0.000000 0
428 193 0.000000 0.000000 0.000000 0
430 193 0.000000 0.000000 0.000000 0
432 193 0.000000 0.000000 0.000000 0
434 193 0.000000 0.000000 0.000000 0
436 193 0.000000 0.000000 0.000000 0
438 193 0.000000 0.000000 0.000000 0
440 193 0.000000 0.000000 0.000000 0
442 193 0.000000 0.000000 0.000000 0
444 193 0.000000 0.000000 0.000000 0
446 193 0.000000 0.000000 0.000000 0
308 195 0.000000 0.000000 0.000000 0
310 195 0.000000 0.000000 0.000000 0
312 195 0.000000 0.000000 0.000000 0
314 195 0.000000 0.000000 0.000000 0
316 195 0.000000 0.000000 0.000000 0
318 195 0.000000 0.000000 0.000000 0
320 195 0.000000 0.000000 0.000000 0
322 195 0.000000 0.000000 0.000000 0
324 195 0.000000 0.000000 0.000000 0
326 195 0.000000 0.000000 0.000000 0
328 195 0.000000 0.000000 0.000000 0
330 195 0.000000 0.000000 0.000000 0
332 195 0.000000 0.000000 0.000000 0
334 195 0.000000 0.000000 0.000000 0
336 195 0.000000 0.000000 0.000000 0
338 195 0.000000 0.000000 0.000000 0
340 195 0.000000 0.000000 0.000000 0
342 195 0.000000 0.000000 0.000000 0
344 195 0.000000 0.000000 0.000000 0
346 195 0.000000 0.000000 0.000000 0
348 195 0.000000 0.000000 0.000000 0
350 195 0.000000 0.000000 0.000000 0
352 195 0.000000 0.000000 0.000000 0
354 195 0.000000 0.000000 0.000000 0
356 195 0.000000 0.000000 0.000000 0
358 195 0.000000 0.000000 0.000000 0
360 195 0.000000 0.000000 0.000000 0
362 195 0.000000 0.000000 0.000000 0
364 195 0.000000 0.000000 0.000000 0
366 195 0.000000 0.000000 0.000000 0
368 195 0.000000 0.000000 0.000000 0
370 195 0.000000 0.000000 0.000000 0
372 195 0.000000 0.000000 0.000000 0
374 195 0.000000 0.000000 0.000000 0
376 195 0.000000 0.000000 0.000000 0
378 195 0.000000 0.000000 0.000000 0
380 195 0.000000 0.000000 0.000000 0
382 195 0.000000 0.000000 0.000000 0
384 195 0.000000 0.000000 0.000000 0
386 195 0.000000 0.000000 0.000000 0
388 195 0.000000 0.000000 0.000000 0
390 195 0.000000 0.000000 0.000000 0
392 195 0.000000 0.000000 0.000000 0
394 195 0.000000 0.000000 0.000000 0
396 195 0.000000 0.000000 0.000000 0
398 195 0.000000 0.000000 0.000000 0
400 195 0.000000 0.000000 0.000000 0
402 195 0.000000 0.000000 0.000000 0
404 195 0.000000 0.000000 0.000000 0
406 195 0.000000 0.000000 0.000000 0
408 195 0.000000 0.000000 0.000000 0
410 195 0.000000 0.000000 0.000000 0
412 195 0.000000 0.000000 0.000000 0
414 195 0.000000 0.000000 0.000000 0
416 195 0.000000 0.000000 0.000000 0
418 195 0.000000 0.000000 0.000000 0
420 195 0.000000 0.000000 0.000000 0
422 195 0.000000 0.000000 0.000000 0
424 195 0.000000 0.000000 0.000000 0
426 195 0.000000 0.000000 0.000000 0
428 195 0.000000 0.000000 0.000000 0
430 195 0.000000 0.000000 0.000000 0
432 195 0.000000 0.000000 0.000000 0
434 195 0.000000 0.000000 0.000000 0
436 195 0.000000 0.000000 0.000000 0
438 195 0.000000 0.000000 0.000000 0
440 195 0.000000 0.000000 0.000000 0
442 195 0.000000 0.000000 0.000000 0
444 195 0.000000 0.000000 0.000000 0
446 195 0.000000 0.000000 0.000000 0
308 197 0.000000 0.000000 0.000000 0
310 197 0.000000 0.000000 0.000000 0
312 197 0.000000 0.000000 0.000000 0
314 197 0.000000 0.000000 0.000000 0
316 197 0.000000 0.000000 0.000000 0
318 197 -0.208668 0.016517 -0.056603 1
320 197 -0.191673 -0.025497 -0.058641 1
322 197 -0.189932 -0.093272 -0.065550 1
324 197 -0.184352 -0.157185 -0.074061 1
326 197 -0.164761 -0.211962 -0.069373 1
328 197 -0.133409 -0.262047 -0.053386 1
330 197 -0.098322 -0.304269 -0.049083 1
332 197 -0.053963 -0.334113 -0.066170 1
334 197 -0.003490 -0.354630 -0.111919 1
336 197 0.044450 -0.367515 -0.161009 1
338 197 0.089807 -0.378326 -0.186832 1
340 197 0.137885 -0.391117 -0.184076 1
342 197 0.188538 -0.394258 -0.165938 1
344 197 0.244855 -0.384931 -0.142656 1
346 197 0.302738 -0.366759 -0.114854 1
348 197 0.358174 -0.341725 -0.096117 1
350 197 0.408195 -0.317214 -0.097031 1
352 197 0.446327 -0.291703 -0.116166 1
354 197 0.475734 -0.261939 -0.134384 1
356 197 0.500673 -0.229094 -0.145389 1
358 197 0.523624 -0.190035 -0.148634 1
360 197 0.545263 -0.148826 -0.152281 1
362 197 0.564939 -0.106731 -0.153817 1
364 197 0.586084 -0.064090 -0.147650 1
366 197 0.605828 -0.022916 -0.134485 1
368 197 0.612651 0.017172 -0.123137 1
370 197 0.606349 0.055251 -0.120409 1
372 197 0.592716 0.094454 -0.128354 1
374 197 0.584945 0.136130 -0.138956 1
376 197 0.588778 0.178708 -0.140568 1
378 197 0.593300 0.219921 -0.128211 1
380 197 0.591248 0.258341 -0.106438 1
382 197 0.574955 0.290120 -0.083592 1
384 197 0.548587 0.315257 -0.069538 1
386 197 0.518247 0.337752 -0.071722 1
388 197 0.489681 0.360416 -0.081298 1
390 197 0.465833 0.385329 -0.089836 1
392 197 0.447012 0.411830 -0.100159 1
394 197 0.429365 0.438054 -0.113966 1
396 197 0.411448 0.463869 -0.120454 1
398 197 0.394623 0.488251 -0.118872 1
400 197 0.376766 0.510716 -0.112548 1
402 197 0.359293 0.529447 -0.105091 1
404 197 0.380650 0.550529 -0.061699 1
406 197 0.000000 0.000000 0.000000 0
408 197 0.000000 0.000000 0.000000 0
410 197 0.000000 0.000000 0.000000 0
412 197 0.000000 0.000000 0.000000 0
414 197 0.000000 0.000000 0.000000 0
416 197 0.000000 0.000000 0.000000 0
418 197 0.000000 0.000000 0.000000 0
420 197 0.000000 0.000000 0.000000 0
422 197 0.000000 0.000000 0.000000 0
424 197 0.000000 0.000000 0.000000 0
426 197 0.000000 0.000000 0.000000 0
428 197 0.000000 0.000000 0.000000 0
430 197 0.000000 0.000000 0.000000 0
432 197 0.000000 0.000000 0.000000 0
434 197 0.000000 0.000000 0.000000 0
436 197 0.000000 0.000000 0.000000 0
438 197 0.000000 0.000000 0.000000 0
440 197 0.000000 0.000000 0.000000 0
442 197 0.000000 0.000000 0.000000 0
444 197 0.000000 0.000000 0.000000 0
446 197 0.000000 0.000000 0.000000 0
308 199 0.000000 0.000000 0.000000 0
310 199 0.000000 0.000000 0.000000 0
312 199 0.000000 0.000000 0.000000 0
314 199 0.000000 0.000000 0.000000 0
316 199 -0.228211 0.091377 -0.055846 1
318 199 -0.234565 0.040585 -0.046098 1
320 199 -0.241091 -0.036178 -0.040394 1
322 199 -0.237245 -0.114619 -0.046938 1
324 199 -0.224783 -0.190023 -0.061903 1
326 199 -0.198850 -0.253904 -0.076845 1
328 199 -0.165566 -0.313713 -0.087846 1
330 199 -0.132218 -0.365448 -0.102855 1
332 199 -0.086816 -0.405405 -0.128774 1
334 199 -0.027356 -0.437444 -0.165869 1
336 199 0.033050 -0.458856 -0.199550 1
338 199 0.092111 -0.474949 -0.212479 1
340 199 0.147734 -0.487962 -0.213353 1
342 199 0.203458 -0.488766 -0.213871 1
344 199 0.263867 -0.476415 -0.217992 1
346 199 0.327725 -0.455108 -0.215879 1
348 199 0.393175 -0.424982 -0.209330 1
350 199 0.453085 -0.393769 -0.203827 1
352 199 0.500194 -0.358024 -0.197943 1
354 199 0.535499 -0.318997 -0.191125 1
356 199 0.566210 -0.277251 -0.181998 1
358 199 0.594111 -0.230470 -0.175912 1
360 199 0.618822 -0.182274 -0.175188 1
362 199 0.638452 -0.132278 -0.175495 1
364 199 0.656895 -0.082967 -0.169713 1
366 199 0.673383 -0.034677 -0.156471 1
368 199 0.680923 0.011378 -0.142546 1
370 199 0.678692 0.055717 -0.135930 1
372 199 0.668148 0.100931 -0.140941 1
374 199 0.658274 0.147563 -0.150222 1
376 199 0.653154 0.194397 -0.149983 1
378 199 0.648052 0.238036 -0.135378 1
380 199 0.636873 0.278534 -0.111742 1
382 199 0.616186 0.312627 -0.088032 1
384 199 0.587939 0.341617 -0.073456 1
386 199 0.558058 0.369610 -0.072672 1
388 199 0.531025 0.396683 -0.076554 1
390 199 0.508927 0.422827 -0.074062 1
392 199 0.490610 0.447184 -0.072028 1
394 199 0.472860 0.469620 -0.070607 1
396 199 0.455338 0.492751 -0.064423 1
398 199 0.439706 0.515810 -0.052941 1
400 199 0.423736 0.537814 -0.043400 1
402 199 0.408233 0.556010 -0.039332 1
404 199 0.394717 0.566844 -0.036705 1
406 199 0.410433 0.579751 -0.022377 1
408 199 0.000000 0.000000 0.000000 0
410 199 0.000000 0.000000 0.000000 0
412 199 0.000000 0.000000 0.000000 0
414 199 0.000000 0.000000 0.000000 0
416 199 0.000000 0.000000 0.000000 0
418 199 0.000000 0.000000 0.000000 0
420 199 0.000000 0.000000 0.000000 0
422 199 0.000000 0.000000 0.000000 0
424 199 0.000000 0.000000 0.000000 0
426 199 0.000000 0.000000 0.000000 0
428 199 0.000000 0.000000 0.000000 0
430 199 0.000000 0.000000 0.000000 0
432 199 0.000000 0.000000 0.000000 0
434 199 0.000000 0.000000 0.000000 0
436 199 0.000000 0.000000 0.000000 0
438 199 0.000000 0.000000 0.000000 0
440 199 0.000000 0.000000 0.000000 0
442 199 0.000000 0.000000 0.000000 0
444 199 0.000000 0.000000 0.000000 0
446 199 0.000000 0.000000 0.000000 0
308 201 0.000000 0.000000 0.000000 0
310 201 0.000000 0.000000 0.000000 0
312 201 0.000000 0.000000 0.000000 0
314 201 0.000000 0.000000 0.000000 0
316 201 -0.234470 0.099690 0.014194 1
318 201 -0.249095 0.038860 0.002222 1
320 201 -0.245229 -0.050247 -0.022943 1
322 201 -0.235931 -0.139863 -0.043676 1
324 201 -0.217089 -0.224157 -0.064352 1
326 201 -0.183312 -0.297537 -0.093680 1
328 201 -0.146766 -0.364593 -0.120183 1
330 201 -0.113154 -0.424240 -0.141621 1
332 201 -0.066376 -0.472893 -0.163532 1
334 201 -0.002223 -0.514026 -0.185662 1
336 201 0.063695 -0.543939 -0.206317 1
338 201 0.123719 -0.563980 -0.219873 1
340 201 0.175416 -0.577302 -0.236185 1
342 201 0.226895 -0.576168 -0.256443 1
344 201 0.282750 -0.561346 -0.279860 1
346 201 0.345868 -0.537450 -0.290136 1
348 201 0.414631 -0.503760 -0.281108 1
350 201 0.483002 -0.465731 -0.261270 1
352 201 0.537708 -0.421527 -0.237976 1
354 201 0.580458 -0.372052 -0.216871 1
356 201 0.617548 -0.321768 -0.201636 1
358 201 0.651755 -0.267239 -0.194273 1
360 201 0.681242 -0.212143 -0.191832 1
362 201 0.702340 -0.156038 -0.190223 1
364 201 0.718559 -0.100037 -0.183583 1
366 201 0.732181 -0.046340 -0.169729 1
368 201 0.739833 0.005519 -0.152537 1
370 201 0.741789 0.055275 -0.141267 1
372 201 0.736231 0.106613 -0.142443 1
374 201 0.726406 0.159509 -0.150705 1
376 201 0.714928 0.211330 -0.152079 1
378 201 0.699544 0.258657 -0.140775 1
380 201 0.681087 0.300973 -0.120595 1
382 201 0.656220 0.336844 -0.099685 1
384 201 0.626665 0.368711 -0.085105 1
386 201 0.597575 0.401042 -0.079520 1
388 201 0.572082 0.432268 -0.077409 1
390 201 0.550495 0.459819 -0.069336 1
392 201 0.531079 0.482568 -0.059134 1
394 201 0.511671 0.502302 -0.049827 1
396 201 0.492565 0.522629 -0.036910 1
398 201 0.476535 0.543693 -0.021657 1
400 201 0.460385 0.563630 -0.013222 1
402 201 0.445259 0.578797 -0.013191 1
404 201 0.432527 0.585870 -0.014957 1
406 201 0.418951 0.587048 -0.019396 1
408 201 0.430218 0.591756 -0.020109 1
410 201 0.000000 0.000000 0.000000 0
412 201 0.000000 0.000000 0.000000 0
414 201 0.000000 0.000000 0.000000 0
416 201 0.000000 0.000000 0.000000 0
418 201 0.000000 0.000000 0.000000 0
420 201 0.000000 0.000000 0.000000 0
422 201 0.000000 0.000000 0.000000 0
424 201 0.000000 0.000000 0.000000 0
426 201 0.000000 0.000000 0.000000 0
428 201 0.000000 0.000000 0.000000 0
430 201 0.000000 0.000000 0.000000 0
432 201 0.000000 0.000000 0.000000 0
434 201 0.000000 0.000000 0.000000 0
436 201 0.000000 0.000000 0.000000 0
438 201 0.000000 0.000000 0.000000 0
440 201 0.000000 0.000000 0.000000 0
442 201 0.000000 0.000000 0.000000 0
444 201 0.000000 0.000000 0.000000 0
446 201 0.000000 0.000000 0.000000 0
308 203 0.000000 0.000000 0.000000 0
310 203 0.000000 0.000000 0.000000 0
312 203 0.000000 0.000000 0.000000 0
314 203 0.000000 0.000000 0.000000 0
316 203 -0.192151 0.105113 0.113957 1
318 203 -0.183899 0.031920 0.106890 1
320 203 -0.154528 -0.069464 0.041559 1
322 203 -0.129737 -0.168037 -0.013309 1
324 203 -0.105308 -0.261197 -0.046587 1
326 203 -0.068547 -0.341783 -0.083420 1
328 203 -0.028260 -0.415493 -0.117548 1
330 203 0.008311 -0.479801 -0.135300 1
332 203 0.058182 -0.533357 -0.143488 1
334 203 0.123290 -0.578553 -0.150817 1
336 203 0.185372 -0.611225 -0.168747 1
338 203 0.232897 -0.631574 -0.200184 1
340 203 0.269309 -0.643640 -0.239855 1
342 203 0.304050 -0.640574 -0.282932 1
344 203 0.347424 -0.624801 -0.315503 1
346 203 0.399202 -0.600499 -0.327327 1
348 203 0.459994 -0.566381 -0.311242 1
350 203 0.524993 -0.526345 -0.280536 1
352 203 0.580092 -0.476795 -0.246646 1
354 203 0.624733 -0.420858 -0.222364 1
356 203 0.665309 -0.362384 -0.208616 1
358 203 0.703069 -0.301065 -0.203046 1
360 203 0.736415 -0.239536 -0.199758 1
362 203 0.759385 -0.177799 -0.194779 1
364 203 0.774743 -0.116665 -0.186083 1
366 203 0.785476 -0.057221 -0.172188 1
368 203 0.791787 -0.000574 -0.154394 1
370 203 0.795194 0.054766 -0.140447 1
372 203 0.792145 0.111656 -0.138375 1
374 203 0.782810 0.170778 -0.144769 1
376 203 0.766418 0.228342 -0.148736 1
378 203 0.744074 0.279398 -0.143401 1
380 203 0.718762 0.324049 -0.131738 1
382 203 0.690718 0.361330 -0.115553 1
384 203 0.659958 0.395590 -0.099854 1
386 203 0.631520 0.431063 -0.086472 1
388 203 0.606923 0.465274 -0.076324 1
390 203 0.584722 0.494504 -0.063642 1
392 203 0.563171 0.516909 -0.050434 1
394 203 0.539978 0.534986 -0.038300 1
396 203 0.517442 0.553280 -0.025448 1
398 203 0.498453 0.571456 -0.013658 1
400 203 0.480856 0.587735 -0.010883 1
402 203 0.466100 0.598419 -0.014973 1
404 203 0.456637 0.600231 -0.017570 1
406 203 0.448611 0.597055 -0.018463 1
408 203 0.444487 0.594540 -0.020271 1
410 203 0.000000 0.000000 0.000000 0
412 203 0.000000 0.000000 0.000000 0
414 203 0.000000 0.000000 0.000000 0
416 203 0.000000 0.000000 0.000000 0
418 203 0.000000 0.000000 0.000000 0
420 203 0.000000 0.000000 0.000000 0
422 203 0.000000 0.000000 0.000000 0
424 203 0.000000 0.000000 0.000000 0
426 203 0.000000 0.000000 0.000000 0
428 203 0.000000 0.000000 0.000000 0
430 203 0.000000 0.000000 0.000000 0
432 203 0.000000 0.000000 0.000000 0
434 203 0.000000 0.000000 0.000000 0
436 203 0.000000 0.000000 0.000000 0
438 203 0.000000 0.000000 0.000000 0
440 203 0.000000 0.000000 0.000000 0
442 203 0.000000 0.000000 0.000000 0
444 203 0.000000 0.000000 0.000000 0
446 203 0.000000 0.000000 0.000000 0
308 205 0.000000 0.000000 0.000000 0
310 205 0.000000 0.000000 0.000000 0
312 205 0.000000 0.000000 0.000000 0
314 205 0.000000 0.000000 0.000000 0
316 205 -0.051543 0.100458 0.244254 1
318 205 -0.015707 0.013996 0.240612 1
320 205 0.053010 -0.102271 0.159103 1
322 205 0.101142 -0.208543 0.079421 1
324 205 0.129575 -0.307584 0.037210 1
326 205 0.164644 -0.393655 -0.002359 1
328 205 0.207346 -0.470490 -0.038834 1
330 205 0.248204 -0.536602 -0.052037 1
332 205 0.298865 -0.590541 -0.051801 1
334 205 0.358316 -0.633705 -0.060566 1
336 205 0.409326 -0.662931 -0.093787 1
338 205 0.439140 -0.678915 -0.154135 1
340 205 0.451517 -0.687364 -0.223944 1
342 205 0.465873 -0.682518 -0.282135 1
344 205 0.488500 -0.666676 -0.317166 1
346 205 0.523248 -0.643651 -0.326124 1
348 205 0.565542 -0.612034 -0.308286 1
350 205 0.614459 -0.574023 -0.278355 1
352 205 0.657612 -0.524631 -0.247406 1
354 205 0.693299 -0.465796 -0.227550 1
356 205 0.728581 -0.402622 -0.218178 1
358 205 0.762228 -0.334686 -0.214988 1
360 205 0.794614 -0.267160 -0.209844 1
362 205 0.817390 -0.199507 -0.199106 1
364 205 0.831984 -0.132348 -0.186220 1
366 205 0.840732 -0.066781 -0.172530 1
368 205 0.844493 -0.003245 -0.157413 1
370 205 0.846357 0.057477 -0.144104 1
372 205 0.842523 0.120188 -0.138306 1
374 205 0.832089 0.184572 -0.140702 1
376 205 0.812310 0.247173 -0.144444 1
378 205 0.784826 0.302241 -0.144453 1
380 205 0.754840 0.349691 -0.139885 1
382 205 0.722869 0.389667 -0.128551 1
384 205 0.690432 0.426188 -0.110861 1
386 205 0.661103 0.463787 -0.089080 1
388 205 0.635273 0.499052 -0.070839 1
390 205 0.610252 0.528544 -0.054194 1
392 205 0.584355 0.550259 -0.040571 1
394 205 0.556101 0.567243 -0.030780 1
396 205 0.527066 0.582891 -0.024450 1
398 205 0.503702 0.597375 -0.020371 1
400 205 0.484682 0.608025 -0.024192 1
402 205 0.473391 0.613145 -0.028727 1
404 205 0.471466 0.609591 -0.026446 1
406 205 0.472644 0.601486 -0.019995 1
408 205 0.472682 0.597249 -0.016021 1
410 205 0.000000 0.000000 0.000000 0
412 205 0.000000 0.000000 0.000000 0
414 205 0.000000 0.000000 0.000000 0
416 205 0.000000 0.000000 0.000000 0
418 205 0.000000 0.000000 0.000000 0
420 205 0.000000 0.000000 0.000000 0
422 205 0.000000 0.000000 0.000000 0
424 205 0.000000 0.000000 0.000000 0
426 205 0.000000 0.000000 0.000000 0
428 205 0.000000 0.000000 0.000000 0
430 205 0.000000 0.000000 0.000000 0
432 205 0.000000 0.000000 0.000000 0
434 205 0.000000 0.000000 0.000000 0
436 205 0.000000 0.000000 0.000000 0
438 205 0.000000 0.000000 0.000000 0
440 205 0.000000 0.000000 0.000000 0
442 205 0.000000 0.000000 0.000000 0
444 205 0.000000 0.000000 0.000000 0
446 205 0.000000 0.000000 0.000000 0
308 207 0.000000 0.000000 0.000000 0
310 207 0.000000 0.000000 0.000000 0
312 207 0.000000 0.000000 0.000000 0
314 207 0.000000 0.000000 0.000000 0
316 207 0.156303 0.095544 0.310904 1
318 207 0.211382 -0.007723 0.334132 1
320 207 0.307738 -0.138029 0.269190 1
322 207 0.376562 -0.252167 0.196665 1
324 207 0.406750 -0.355263 0.161306 1
326 207 0.439597 -0.444807 0.127632 1
328 207 0.485848 -0.523684 0.089946 1
330 207 0.530876 -0.590055 0.073029 1
332 207 0.580028 -0.642875 0.066968 1
334 207 0.632990 -0.682918 0.042655 1
336 207 0.676093 -0.706562 -0.012491 1
338 207 0.695957 -0.716195 -0.098357 1
340 207 0.693090 -0.719593 -0.189794 1
342 207 0.686366 -0.711450 -0.260384 1
344 207 0.691031 -0.694344 -0.295807 1
346 207 0.705345 -0.671601 -0.301622 1
348 207 0.728808 -0.641489 -0.286706 1
350 207 0.756435 -0.606028 -0.268085 1
352 207 0.779859 -0.559351 -0.250908 1
354 207 0.797740 -0.502300 -0.241146 1
356 207 0.816005 -0.438297 -0.239068 1
358 207 0.837653 -0.367540 -0.238501 1
360 207 0.861528 -0.294933 -0.231347 1
362 207 0.881000 -0.222099 -0.213979 1
364 207 0.894163 -0.148571 -0.194402 1
366 207 0.901692 -0.075328 -0.179639 1
368 207 0.904056 -0.004152 -0.167507 1
370 207 0.904100 0.064167 -0.156307 1
372 207 0.899236 0.132157 -0.146768 1
374 207 0.887224 0.201732 -0.142070 1
376 207 0.864542 0.268488 -0.141922 1
378 207 0.833048 0.327454 -0.142059 1
380 207 0.798434 0.378705 -0.140338 1
382 207 0.762805 0.421827 -0.130375 1
384 207 0.727589 0.461341 -0.111211 1
386 207 0.695931 0.500261 -0.086146 1
388 207 0.665993 0.535124 -0.063596 1
390 207 0.635836 0.563134 -0.045077 1
392 207 0.604359 0.582891 -0.031885 1
394 207 0.569940 0.597751 -0.025300 1
396 207 0.535698 0.610613 -0.023167 1
398 207 0.507814 0.619726 -0.024329 1
400 207 0.488458 0.624377 -0.028460 1
402 207 0.481491 0.622927 -0.028442 1
404 207 0.487870 0.613761 -0.018224 1
406 207 0.497341 0.600923 -0.004340 1
408 207 0.502327 0.595150 0.005525 1
410 207 0.000000 0.000000 0.000000 0
412 207 0.000000 0.000000 0.000000 0
414 207 0.000000 0.000000 0.000000 0
416 207 0.000000 0.000000 0.000000 0
418 207 0.000000 0.000000 0.000000 0
420 207 0.000000 0.000000 0.000000 0
422 207 0.000000 0.000000 0.000000 0
424 207 0.000000 0.000000 0.000000 0
426 207 0.000000 0.000000 0.000000 0
428 207 0.000000 0.000000 0.000000 0
430 207 0.000000 0.000000 0.000000 0
432 207 0.000000 0.000000 0.000000 0
434 207 0.000000 0.000000 0.000000 0
436 207 0.000000 0.000000 0.000000 0
438 207 0.000000 0.000000 0.000000 0
440 207 0.000000 0.000000 0.000000 0
442 207 0.000000 0.000000 0.000000 0
444 207 0.000000 0.000000 0.000000 0
446 207 0.000000 0.000000 0.000000 0
308 209 0.000000 0.000000 0.000000 0
310 209 0.000000 0.000000 0.000000 0
312 209 0.000000 0.000000 0.000000 0
314 209 0.000000 0.000000 0.000000 0
316 209 0.465719 0.075194 0.341683 1
318 209 0.532602 -0.038400 0.374217 1
320 209 0.630626 -0.176701 0.336182 1
322 209 0.695098 -0.292565 0.285050 1
324 209 0.720550 -0.396411 0.268149 1
326 209 0.756305 -0.489139 0.246357 1
328 209 0.810919 -0.570512 0.209360 1
330 209 0.862013 -0.636953 0.180953 1
332 209 0.909599 -0.688366 0.158778 1
334 209 0.958622 -0.724360 0.116411 1
336 209 1.002843 -0.742180 0.057023 1
338 209 1.026811 -0.743792 -0.026227 1
340 209 1.020216 -0.739772 -0.117329 1
342 209 1.000206 -0.725640 -0.188345 1
344 209 0.984049 -0.703181 -0.227278 1
346 209 0.978934 -0.676748 -0.236757 1
348 209 0.978671 -0.643268 -0.235163 1
350 209 0.984549 -0.607255 -0.237104 1
352 209 0.982334 -0.563444 -0.243833 1
354 209 0.970890 -0.512115 -0.250369 1
356 209 0.960608 -0.453455 -0.257059 1
358 209 0.954214 -0.386490 -0.259765 1
360 209 0.959966 -0.314653 -0.251216 1
362 209 0.965734 -0.240506 -0.227904 1
364 209 0.971756 -0.163073 -0.203803 1
366 209 0.974584 -0.083153 -0.189030 1
368 209 0.974589 -0.003416 -0.180382 1
370 209 0.973557 0.072736 -0.170977 1
372 209 0.968380 0.148069 -0.157637 1
374 209 0.955010 0.222546 -0.147541 1
376 209 0.928687 0.293851 -0.142661 1
378 209 0.893429 0.356689 -0.139300 1
380 209 0.855101 0.411981 -0.133296 1
382 209 0.816934 0.458594 -0.118063 1
384 209 0.780141 0.500584 -0.095584 1
386 209 0.744198 0.540375 -0.071613 1
388 209 0.707418 0.573614 -0.052142 1
390 209 0.668767 0.598397 -0.036791 1
392 209 0.631905 0.615120 -0.023552 1
394 209 0.594294 0.627183 -0.013865 1
396 209 0.559288 0.636445 -0.004635 1
398 209 0.532024 0.640660 0.001844 1
400 209 0.514669 0.637716 0.008580 1
402 209 0.510410 0.629953 0.017131 1
404 209 0.520787 0.614707 0.034852 1
406 209 0.534182 0.597412 0.052954 1
408 209 0.541072 0.591517 0.063266 1
410 209 0.000000 0.000000 0.000000 0
412 209 0.000000 0.000000 0.000000 0
414 209 0.000000 0.000000 0.000000 0
416 209 0.000000 0.000000 0.000000 0
418 209 0.000000 0.000000 0.000000 0
420 209 0.000000 0.000000 0.000000 0
422 209 0.000000 0.000000 0.000000 0
424 209 0.000000 0.000000 0.000000 0
426 209 0.000000 0.000000 0.000000 0
428 209 0.000000 0.000000 0.000000 0
430 209 0.000000 0.000000 0.000000 0
432 209 0.000000 0.000000 0.000000 0
434 209 0.000000 0.000000 0.000000 0
436 209 0.000000 0.000000 0.000000 0
438 209 0.000000 0.000000 0.000000 0
440 209 0.000000 0.000000 0.000000 0
442 209 0.000000 0.000000 0.000000 0
444 209 0.000000 0.000000 0.000000 0
446 209 0.000000 0.000000 0.000000 0
308 211 0.000000 0.000000 0.000000 0
310 211 0.000000 0.000000 0.000000 0
312 211 0.000000 0.000000 0.000000 0
314 211 0.000000 0.000000 0.000000 0
316 211 0.813624 0.033952 0.397734 1
318 211 0.891334 -0.083610 0.417846 1
320 211 0.977331 -0.220355 0.380666 1
322 211 1.023425 -0.331583 0.341084 1
324 211 1.045309 -0.433281 0.330163 1
326 211 1.089410 -0.529069 0.314242 1
328 211 1.155992 -0.614946 0.277108 1
330 211 1.214871 -0.682781 0.239609 1
332 211 1.263630 -0.732654 0.203204 1
334 211 1.312270 -0.765166 0.159419 1
336 211 1.360043 -0.776279 0.118757 1
338 211 1.390461 -0.769789 0.059451 1
340 211 1.386892 -0.755891 -0.012752 1
342 211 1.359621 -0.732509 -0.076569 1
344 211 1.328225 -0.701292 -0.121899 1
346 211 1.301740 -0.666123 -0.146889 1
348 211 1.282398 -0.625810 -0.164153 1
350 211 1.265246 -0.585410 -0.193141 1
352 211 1.239450 -0.542624 -0.223577 1
354 211 1.197795 -0.496725 -0.248416 1
356 211 1.153550 -0.446020 -0.265148 1
358 211 1.115258 -0.387229 -0.271224 1
360 211 1.089894 -0.322655 -0.262725 1
362 211 1.074654 -0.252367 -0.238086 1
364 211 1.063105 -0.175286 -0.214103 1
366 211 1.055738 -0.091814 -0.201650 1
368 211 1.049766 -0.005349 -0.195897 1
370 211 1.046198 0.079248 -0.187544 1
372 211 1.040492 0.162280 -0.172104 1
374 211 1.025664 0.244153 -0.158765 1
376 211 0.996219 0.320598 -0.151823 1
378 211 0.957659 0.388625 -0.144373 1
380 211 0.917049 0.448307 -0.131491 1
382 211 0.878017 0.498628 -0.107112 1
384 211 0.840904 0.543470 -0.077490 1
386 211 0.801806 0.584064 -0.052967 1
388 211 0.756598 0.615108 -0.037539 1
390 211 0.710735 0.636476 -0.024422 1
392 211 0.670987 0.649398 -0.005643 1
394 211 0.634899 0.658389 0.016490 1
396 211 0.603918 0.664468 0.041594 1
398 211 0.580742 0.664045 0.062863 1
400 211 0.565626 0.655896 0.080173 1
402 211 0.562427 0.641730 0.099023 1
404 211 0.572645 0.621770 0.122279 1
406 211 0.586196 0.600629 0.142401 1
408 211 0.596691 0.594298 0.150170 1
410 211 0.000000 0.000000 0.000000 0
412 211 0.000000 0.000000 0.000000 0
414 211 0.000000 0.000000 0.000000 0
416 211 0.000000 0.000000 0.000000 0
418 211 0.000000 0.000000 0.000000 0
420 211 0.000000 0.000000 0.000000 0
422 211 0.000000 0.000000 0.000000 0
424 211 0.000000 0.000000 0.000000 0
426 211 0.000000 0.000000 0.000000 0
428 211 0.000000 0.000000 0.000000 0
430 211 0.000000 0.000000 0.000000 0
432 211 0.000000 0.000000 0.000000 0
434 211 0.000000 0.000000 0.000000 0
436 211 0.000000 0.000000 0.000000 0
438 211 0.000000 0.000000 0.000000 0
440 211 0.000000 0.000000 0.000000 0
442 211 0.000000 0.000000 0.000000 0
444 211 0.000000 0.000000 0.000000 0
446 211 0.000000 0.000000 0.000000 0
308 213 0.000000 0.000000 0.000000 0
310 213 0.000000 0.000000 0.000000 0
312 213 0.000000 0.000000 0.000000 0
314 213 0.000000 0.000000 0.000000 0
316 213 1.145146 -0.009168 0.454942 1
318 213 1.222717 -0.125097 0.455825 1
320 213 1.298082 -0.256332 0.409958 1
322 213 1.333985 -0.363061 0.367928 1
324 213 1.360891 -0.462973 0.345571 1
326 213 1.416265 -0.561694 0.320411 1
328 213 1.493062 -0.652888 0.278484 1
330 213 1.556550 -0.722659 0.237274 1
332 213 1.606469 -0.770994 0.199125 1
334 213 1.654073 -0.798561 0.170329 1
336 213 1.700272 -0.803415 0.157060 1
338 213 1.729115 -0.787071 0.132212 1
340 213 1.726268 -0.763349 0.080461 1
342 213 1.698350 -0.728963 0.027931 1
344 213 1.661204 -0.686977 -0.021491 1
346 213 1.624865 -0.641422 -0.061350 1
348 213 1.592656 -0.591226 -0.100428 1
350 213 1.562280 -0.545229 -0.147435 1