TITLE = "B00010"
VARIABLES = "X", "Y", "Vx", "Vy", "Vz", "flag"
ZONE T="B00010", I=70, J=78
308 191 0.000000 0.000000 0.000000 0
310 191 0.000000 0.000000 0.000000 0
312 191 0.000000 0.000000 0.000000 0
314 191 0.000000 0.000000 0.000000 0
316 191 0.000000 0.000000 0.000000 0
318 191 0.000000 0.000000 0.000000 0
320 191 0.000000 0.000000 0.000000 0
322 191 0.000000 0.000000 0.000000 0
324 191 0.000000 0.000000 0.000000 0
326 191 0.000000 0.000000 0.000000 0
328 191 0.000000 0.000000 0.000000 0
330 191 0.000000 0.000000 0.000000 0
332 191 0.000000 0.000000 0.000000 0
334 191 0.000000 0.000000 0.000000 0
336 191 0.000000 0.000000 0.000000 0
338 191 0.000000 0.000000 0.000000 0
340 191 0.000000 0.000000 0.000000 0
342 191 0.000000 0.000000 0.000000 0
344 191 0.000000 0.000000 0.000000 0
346 191 0.000000 0.000000 0.000000 0
348 191 0.000000 0.000000 0.000000 0
350 191 0.000000 0.000000 0.000000 0
352 191 0.000000 0.000000 0.000000 0
354 191 0.000000 0.000000 0.000000 0
356 191 0.000000 0.000000 0.000000 0
358 191 0.000000 0.000000 0.000000 0
360 191 0.000000 0.000000 0.000000 0
362 191 0.000000 0.000000 0.000000 0
364 191 0.000000 0.000000 0.000000 0
366 191 0.000000 0.000000 0.000000 0
368 191 0.000000 0.000000 0.000000 0
370 191 0.000000 0.000000 0.000000 0
372 191 0.000000 0.000000 0.000000 0
374 191 0.000000 0.000000 0.000000 0
376 191 0.000000 0.000000 0.000000 0
378 191 0.000000 0.000000 0.000000 0
380 191 0.000000 0.000000 0.000000 0
382 191 0.000000 0.000000 0.000000 0
384 191 0.000000 0.000000 0.000000 0
386 191 0.000000 0.000000 0.000000 0
388 191 0.000000 0.000000 0.000000 0
390 191 0.000000 0.000000 0.000000 0
392 191 0.000000 0.000000 0.000000 0
394 191 0.000000 0.000000 0.000000 0
396 191 0.000000 0.000000 0.000000 0
398 191 0.000000 0.000000 0.000000 0
400 191 0.000000 0.000000 0.000000 0
402 191 0.000000 0.000000 0.000000 0
404 191 0.000000 0.000000 0.000000 0
406 191 0.000000 0.000000 0.000000 0
408 191 0.000000 0.000000 0.000000 0
410 191 0.000000 0.000000 0.000000 0
412 191 0.000000 0.000000 0.000000 0
414 191 0.000000 0.000000 0.000000 0
416 191 0.000000 0.000000 0.000000 0
418 191 0.000000 0.000000 0.000000 0
420 191 0.000000 0.000000 0.000000 0
422 191 0.000000 0.000000 0.000000 0
424 191 0.000000 0.000000 0.000000 0
426 191 0.000000 0.000000 0.000000 0
428 191 0.000000 0.000000 0.000000 0
430 191 0.000000 0.000000 0.000000 0
432 191 0.000000 0.000000 0.000000 0
434 191 0.000000 0.000000 0.000000 0
436 191 0.000000 0.000000 0.000000 0
438 191 0.000000 0.000000 0.000000 0
440 191 0.000000 0.000000 0.000000 0
442 191 0.000000 0.000000 0.000000 0
444 191 0.000000 0.000000 0.000000 0
446 191 0.000000 0.000000 0.000000 0
308 193 0.000000 0.000000 0.000000 0
310 193 0.000000 0.000000 0.000000 0
312 193 0.000000 0.000000 0.000000 0
314 193 0.000000 0.000000 0.000000 0
316 193 0.000000 0.000000 0.000000 0
318 193 0.000000 0.000000 0.000000 0
320 193 0.000000 0.000000 0.000000 0
322 193 0.000000 0.000000 0.000000 0
324 193 0.000000 0.000000 0.000000 0
326 193 0.000000 0.000000 0.000000 0
328 193 0.000000 0.000000 0.000000 0
330 193 0.000000 0.000000 0.000000 0
332 193 0.000000 0.000000 0.000000 0
334 193 0.000000 0.000000 0.000000 0
336 193 0.000000 0.000000 0.000000 0
338 193 0.000000 0.000000 0.000000 0
340 193 0.000000 0.000000 0.000000 0
342 193 0.000000 0.000000 0.000000 0
344 193 0.000000 0.000000 0.000000 0
346 193 0.000000 0.000000 0.000000 0
348 193 0.000000 0.000000 0.000000 0
350 193 0.000000 0.000000 0.000000 0
352 193 0.000000 0.000000 0.000000 0
354 193 0.000000 0.000000 0.000000 0
356 193 0.000000 0.000000 0.000000 0
358 193 0.000000 0.000000 0.000000 0
360 193 0.000000 0.000000 0.000000 0
362 193 0.000000 0.000000 0.000000 0
364 193 0.000000 0.000000 0.000000 0
366 193 0.000000 0.000000 0.000000 0
368 193 0.000000 0.000000 0.000000 0
370 193 0.000000 0.000000 0.000000 0
372 193 0.000000 0.000000 0.000000 0
374 193 0.000000 0.000000 0.000000 0
376 193 0.000000 0.000000 0.000000 0
378 193 0.000000 0.000000 0.000000 0
380 193 0.000000 0.000000 0.000000 0
382 193 0.000000 0.000000 0.000000 0
384 193 0.000000 0.000000 0.000000 0
386 193 0.000000 0.000000 0.000000 0
388 193 0.000000 0.000000 0.000000 0
390 193 0.000000 0.000000 0.000000 0
392 193 0.000000 0.000000 0.000000 0
394 193 0.000000 0.000000 0.000000 0
396 193 0.000000 0.000000 0.000000 0
398 193 0.000000 0.000000 0.000000 0
400 193 0.000000 0.000000 0.000000 0
402 193 0.000000 0.000000 0.000000 0
404 193 0.000000 0.000000 0.000000 0
406 193 0.000000 0.000000 0.000000 0
408 193 0.000000 0.000000 0.000000 0
410 193 0.000000 0.000000 0.000000 0
412 193 0.000000 0.000000 0.000000 0
414 193 0.000000 0.000000 0.000000 0
416 193 0.000000 0.000000 0.000000 0
418 193 0.000000 0.000000 0.000000 0
420 193 0.000000 0.000000 0.000000 0
422 193 0.000000 0.000000 0.000000 0
424 193 0.000000 0.000000 0.000000 0
426 193 0.000000 0.000000 0.000000 0
428 193 0.000000 0.000000 0.000000 0
430 193 0.000000 0.000000 0.000000 0
432 193 0.000000 0.000000 0.000000 0
434 193 0.000000 0.000000 0.000000 0
436 193 0.000000 0.000000 0.000000 0
438 193 0.000000 0.000000 0.000000 0
440 193 0.000000 0.000000 0.000000 0
442 193 0.000000 0.000000 0.000000 0
444 193 0.000000 0.000000 0.000000 0
446 193 0.000000 0.000000 0.000000 0
308 195 0.000000 0.000000 0.000000 0
310 195 0.000000 0.000000 0.000000 0
312 195 0.000000 0.000000 0.000000 0
314 195 0.000000 0.000000 0.000000 0
316 195 0.000000 0.000000 0.000000 0
318 195 0.000000 0.000000 0.000000 0
320 195 0.000000 0.000000 0.000000 0
322 195 0.000000 0.000000 0.000000 0
324 195 0.000000 0.000000 0.000000 0
326 195 0.000000 0.000000 0.000000 0
328 195 0.000000 0.000000 0.000000 0
330 195 0.000000 0.000000 0.000000 0
332 195 0.000000 0.000000 0.000000 0
334 195 0.000000 0.000000 0.000000 0
336 195 0.000000 0.000000 0.000000 0
338 195 0.000000 0.000000 0.000000 0
340 195 0.000000 0.000000 0.000000 0
342 195 0.000000 0.000000 0.000000 0
344 195 0.000000 0.000000 0.000000 0
346 195 0.000000 0.000000 0.000000 0
348 195 0.000000 0.000000 0.000000 0
350 195 0.000000 0.000000 0.000000 0
352 195 0.000000 0.000000 0.000000 0
354 195 0.000000 0.000000 0.000000 0
356 195 0.000000 0.000000 0.000000 0
358 195 0.000000 0.000000 0.000000 0
360 195 0.000000 0.000000 0.000000 0
362 195 0.000000 0.000000 0.000000 0
364 195 0.000000 0.000000 0.000000 0
366 195 0.000000 0.000000 0.000000 0
368 195 0.000000 0.000000 0.000000 0
370 195 0.000000 0.000000 0.000000 0
372 195 0.000000 0.000000 0.000000 0
374 195 0.000000 0.000000 0.000000 0
376 195 0.000000 0.000000 0.000000 0
378 195 0.000000 0.000000 0.000000 0
380 195 0.000000 0.000000 0.000000 0
382 195 0.000000 0.000000 0.000000 0
384 195 0.000000 0.000000 0.000000 0
386 195 0.000000 0.000000 0.000000 0
388 195 0.000000 0.000000 0.000000 0
390 195 0.000000 0.000000 0.000000 0
392 195 0.000000 0.000000 0.000000 0
394 195 0.000000 0.000000 0.000000 0
396 195 0.000000 0.000000 0.000000 0
398 195 0.000000 0.000000 0.000000 0
400 195 0.000000 0.000000 0.000000 0
402 195 0.000000 0.000000 0.000000 0
404 195 0.000000 0.000000 0.000000 0
406 195 0.000000 0.000000 0.000000 0
408 195 0.000000 0.000000 0.000000 0
410 195 0.000000 0.000000 0.000000 0
412 195 0.000000 0.000000 0.000000 0
414 195 0.000000 0.000000 0.000000 0
416 195 0.000000 0.000000 0.000000 0
418 195 0.000000 0.000000 0.000000 0
420 195 0.000000 0.000000 0.000000 0
422 195 0.000000 0.000000 0.000000 0
424 195 0.000000 0.000000 0.000000 0
426 195 0.000000 0.000000 0.000000 0
428 195 0.000000 0.000000 0.000000 0
430 195 0.000000 0.000000 0.000000 0
432 195 0.000000 0.000000 0.000000 0
434 195 0.000000 0.000000 0.000000 0
436 195 0.000000 0.000000 0.000000 0
438 195 0.000000 0.000000 0.000000 0
440 195 0.000000 0.000000 0.000000 0
442 195 0.000000 0.000000 0.000000 0
444 195 0.000000 0.000000 0.000000 0
446 195 0.000000 0.000000 0.000000 0
308 197 0.000000 0.000000 0.000000 0
310 197 0.000000 0.000000 0.000000 0
312 197 0.000000 0.000000 0.000000 0
314 197 0.000000 0.000000 0.000000 0
316 197 0.000000 0.000000 0.000000 0
318 197 -0.192885 -0.019213 -0.066408 1
320 197 -0.177993 -0.058338 -0.079283 1
322 197 -0.173665 -0.126424 -0.091349 1
324 197 -0.160547 -0.189867 -0.092729 1
326 197 -0.130976 -0.241549 -0.080082 1
328 197 -0.091342 -0.285509 -0.059885 1
330 197 -0.052286 -0.320575 -0.053459 1
332 197 -0.005884 -0.343210 -0.067651 1
334 197 0.046579 -0.356821 -0.109644 1
336 197 0.097370 -0.363621 -0.155293 1
338 197 0.146383 -0.368558 -0.180574 1
340 197 0.196559 -0.375363 -0.178289 1
342 197 0.244209 -0.373288 -0.159712 1
344 197 0.291658 -0.358476 -0.135774 1
346 197 0.339063 -0.334606 -0.110615 1
348 197 0.386104 -0.304960 -0.099280 1
350 197 0.430014 -0.278062 -0.108469 1
352 197 0.463451 -0.253026 -0.132739 1
354 197 0.488879 -0.224169 -0.151555 1
356 197 0.509613 -0.191132 -0.159403 1
358 197 0.529048 -0.151657 -0.154039 1
360 197 0.549347 -0.110355 -0.145840 1
362 197 0.568830 -0.069068 -0.136485 1
364 197 0.587304 -0.028079 -0.125876 1
366 197 0.599585 0.011481 -0.118106 1
368 197 0.597555 0.052375 -0.118969 1
370 197 0.586198 0.094302 -0.127255 1
372 197 0.574780 0.136750 -0.134977 1
374 197 0.571850 0.178018 -0.134569 1
376 197 0.576818 0.215570 -0.120367 1
378 197 0.576216 0.248844 -0.098355 1
380 197 0.565731 0.279905 -0.078363 1
382 197 0.542278 0.307409 -0.067443 1
384 197 0.511363 0.330279 -0.066950 1
386 197 0.478671 0.351547 -0.075996 1
388 197 0.448742 0.372821 -0.086549 1
390 197 0.424095 0.396237 -0.095396 1
392 197 0.405731 0.421111 -0.107892 1
394 197 0.390314 0.445812 -0.124518 1
396 197 0.376283 0.469157 -0.129918 1
398 197 0.364621 0.490081 -0.122514 1
400 197 0.351174 0.507995 -0.109721 1
402 197 0.335461 0.522014 -0.100179 1
404 197 0.356624 0.540047 -0.051468 1
406 197 0.000000 0.000000 0.000000 0
408 197 0.000000 0.000000 0.000000 0
410 197 0.000000 0.000000 0.000000 0
412 197 0.000000 0.000000 0.000000 0
414 197 0.000000 0.000000 0.000000 0
416 197 0.000000 0.000000 0.000000 0
418 197 0.000000 0.000000 0.000000 0
420 197 0.000000 0.000000 0.000000 0
422 197 0.000000 0.000000 0.000000 0
424 197 0.000000 0.000000 0.000000 0
426 197 0.000000 0.000000 0.000000 0
428 197 0.000000 0.000000 0.000000 0
430 197 0.000000 0.000000 0.000000 0
432 197 0.000000 0.000000 0.000000 0
434 197 0.000000 0.000000 0.000000 0
436 197 0.000000 0.000000 0.000000 0
438 197 0.000000 0.000000 0.000000 0
440 197 0.000000 0.000000 0.000000 0
442 197 0.000000 0.000000 0.000000 0
444 197 0.000000 0.000000 0.000000 0
446 197 0.000000 0.000000 0.000000 0
308 199 0.000000 0.000000 0.000000 0
310 199 0.000000 0.000000 0.000000 0
312 199 0.000000 0.000000 0.000000 0
314 199 0.000000 0.000000 0.000000 0
316 199 -0.216331 0.047500 -0.044448 1
318 199 -0.216825 -0.000902 -0.047210 1
320 199 -0.218079 -0.077911 -0.060394 1
322 199 -0.212225 -0.156363 -0.071596 1
324 199 -0.197066 -0.230644 -0.081898 1
326 199 -0.165885 -0.290489 -0.094644 1
328 199 -0.127779 -0.343095 -0.107169 1
330 199 -0.091190 -0.386580 -0.121965 1
332 199 -0.043027 -0.417972 -0.144181 1
334 199 0.019700 -0.441094 -0.175053 1
336 199 0.083822 -0.454409 -0.202462 1
338 199 0.146791 -0.462427 -0.211328 1
340 199 0.204768 -0.468091 -0.209428 1
342 199 0.258296 -0.462887 -0.206042 1
344 199 0.311668 -0.445018 -0.206453 1
346 199 0.367315 -0.418164 -0.204200 1
348 199 0.426613 -0.383010 -0.202096 1
350 199 0.481525 -0.348548 -0.201417 1
352 199 0.524705 -0.312091 -0.196099 1
354 199 0.555663 -0.273520 -0.187798 1
356 199 0.580318 -0.232064 -0.176688 1
358 199 0.601858 -0.186045 -0.166222 1
360 199 0.622703 -0.138650 -0.158522 1
362 199 0.640852 -0.089525 -0.151925 1
364 199 0.657257 -0.041382 -0.142242 1
366 199 0.668116 0.005783 -0.132032 1
368 199 0.667601 0.052634 -0.127803 1
370 199 0.659432 0.100330 -0.131231 1
372 199 0.648656 0.147774 -0.137528 1
374 199 0.641106 0.192856 -0.138442 1
376 199 0.634478 0.233592 -0.127128 1
378 199 0.622900 0.268913 -0.107139 1
380 199 0.603258 0.302298 -0.088161 1
382 199 0.576269 0.332618 -0.075858 1
384 199 0.544596 0.359742 -0.071894 1
386 199 0.513163 0.386570 -0.074711 1
388 199 0.484833 0.411884 -0.078468 1
390 199 0.461489 0.435838 -0.076994 1
392 199 0.443510 0.457907 -0.077670 1
394 199 0.428178 0.478023 -0.078768 1
396 199 0.414772 0.497915 -0.070414 1
398 199 0.404802 0.516842 -0.051751 1
400 199 0.394606 0.533801 -0.034367 1
402 199 0.382676 0.547210 -0.027339 1
404 199 0.371645 0.552972 -0.024446 1
406 199 0.389376 0.563109 -0.009434 1
408 199 0.000000 0.000000 0.000000 0
410 199 0.000000 0.000000 0.000000 0
412 199 0.000000 0.000000 0.000000 0
414 199 0.000000 0.000000 0.000000 0
416 199 0.000000 0.000000 0.000000 0
418 199 0.000000 0.000000 0.000000 0
420 199 0.000000 0.000000 0.000000 0
422 199 0.000000 0.000000 0.000000 0
424 199 0.000000 0.000000 0.000000 0
426 199 0.000000 0.000000 0.000000 0
428 199 0.000000 0.000000 0.000000 0
430 199 0.000000 0.000000 0.000000 0
432 199 0.000000 0.000000 0.000000 0
434 199 0.000000 0.000000 0.000000 0
436 199 0.000000 0.000000 0.000000 0
438 199 0.000000 0.000000 0.000000 0
440 199 0.000000 0.000000 0.000000 0
442 199 0.000000 0.000000 0.000000 0
444 199 0.000000 0.000000 0.000000 0
446 199 0.000000 0.000000 0.000000 0
308 201 0.000000 0.000000 0.000000 0
310 201 0.000000 0.000000 0.000000 0
312 201 0.000000 0.000000 0.000000 0
314 201 0.000000 0.000000 0.000000 0
316 201 -0.229044 0.048051 0.025018 1
318 201 -0.233453 -0.011435 0.001402 1
320 201 -0.220143 -0.099592 -0.043657 1
322 201 -0.206690 -0.188226 -0.069571 1
324 201 -0.187275 -0.270884 -0.085429 1
326 201 -0.151974 -0.339929 -0.114321 1
328 201 -0.112675 -0.399499 -0.143764 1
330 201 -0.077047 -0.450103 -0.165744 1
332 201 -0.028734 -0.488917 -0.185423 1
334 201 0.036610 -0.519606 -0.204969 1
336 201 0.104421 -0.539770 -0.222337 1
338 201 0.167397 -0.550570 -0.231355 1
340 201 0.222137 -0.555541 -0.240948 1
342 201 0.273224 -0.547795 -0.253669 1
344 201 0.325518 -0.527191 -0.270482 1
346 201 0.384614 -0.497408 -0.278342 1
348 201 0.451257 -0.457548 -0.271071 1
350 201 0.517549 -0.414213 -0.252003 1
352 201 0.569996 -0.367595 -0.224667 1
354 201 0.609096 -0.317913 -0.198045 1
356 201 0.639069 -0.268765 -0.179690 1
358 201 0.664438 -0.216660 -0.169883 1
360 201 0.687254 -0.163649 -0.164077 1
362 201 0.705198 -0.108548 -0.158814 1
364 201 0.719307 -0.052851 -0.150220 1
366 201 0.728243 0.000551 -0.139404 1
368 201 0.728440 0.053416 -0.131045 1
370 201 0.723602 0.105906 -0.129513 1
372 201 0.715102 0.158027 -0.133359 1
374 201 0.704138 0.207802 -0.136443 1
376 201 0.688438 0.252653 -0.131182 1
378 201 0.665212 0.291846 -0.119430 1
380 201 0.638719 0.327984 -0.105949 1
382 201 0.609082 0.361114 -0.094521 1
384 201 0.577808 0.391595 -0.086349 1
386 201 0.548488 0.422549 -0.080865 1
388 201 0.521942 0.451241 -0.077445 1
390 201 0.498799 0.475484 -0.070153 1
392 201 0.479702 0.494464 -0.061786 1
394 201 0.462903 0.510608 -0.053767 1
396 201 0.447892 0.526500 -0.037833 1
398 201 0.437558 0.542643 -0.015461 1
400 201 0.428099 0.557158 -0.000042 1
402 201 0.418622 0.567757 0.002139 1
404 201 0.410823 0.570914 -0.000925 1
406 201 0.400830 0.567129 -0.006063 1
408 201 0.415099 0.568766 -0.005551 1
410 201 0.000000 0.000000 0.000000 0
412 201 0.000000 0.000000 0.000000 0
414 201 0.000000 0.000000 0.000000 0
416 201 0.000000 0.000000 0.000000 0
418 201 0.000000 0.000000 0.000000 0
420 201 0.000000 0.000000 0.000000 0
422 201 0.000000 0.000000 0.000000 0
424 201 0.000000 0.000000 0.000000 0
426 201 0.000000 0.000000 0.000000 0
428 201 0.000000 0.000000 0.000000 0
430 201 0.000000 0.000000 0.000000 0
432 201 0.000000 0.000000 0.000000 0
434 201 0.000000 0.000000 0.000000 0
436 201 0.000000 0.000000 0.000000 0
438 201 0.000000 0.000000 0.000000 0
440 201 0.000000 0.000000 0.000000 0
442 201 0.000000 0.000000 0.000000 0
444 201 0.000000 0.000000 0.000000 0
446 201 0.000000 0.000000 0.000000 0
308 203 0.000000 0.000000 0.000000 0
310 203 0.000000 0.000000 0.000000 0
312 203 0.000000 0.000000 0.000000 0
314 203 0.000000 0.000000 0.000000 0
316 203 -0.191627 0.046711 0.121357 1
318 203 -0.175749 -0.026472 0.106025 1
320 203 -0.136459 -0.125679 0.019449 1
322 203 -0.105181 -0.221684 -0.043771 1
324 203 -0.079917 -0.312474 -0.071060 1
326 203 -0.042569 -0.388390 -0.106386 1
328 203 -0.001043 -0.453943 -0.142702 1
330 203 0.035638 -0.508128 -0.161866 1
332 203 0.083810 -0.550436 -0.171810 1
334 203 0.145989 -0.584002 -0.183499 1
336 203 0.205972 -0.606044 -0.204172 1
338 203 0.253898 -0.616653 -0.231271 1
340 203 0.293978 -0.620251 -0.259759 1
342 203 0.331430 -0.610692 -0.289367 1
344 203 0.374789 -0.589584 -0.311545 1
346 203 0.427033 -0.559687 -0.317267 1
348 203 0.490392 -0.518640 -0.298764 1
350 203 0.557171 -0.471257 -0.265522 1
352 203 0.612946 -0.416633 -0.225715 1
354 203 0.655602 -0.359145 -0.195595 1
356 203 0.689915 -0.302048 -0.178278 1
358 203 0.718347 -0.244258 -0.170632 1
360 203 0.743580 -0.185859 -0.165528 1
362 203 0.762042 -0.125133 -0.159522 1
364 203 0.774822 -0.063468 -0.151448 1
366 203 0.781278 -0.003317 -0.142350 1
368 203 0.780463 0.054390 -0.133449 1
370 203 0.776555 0.111494 -0.128571 1
372 203 0.768709 0.167659 -0.129275 1
374 203 0.755377 0.222171 -0.132268 1
376 203 0.732331 0.272298 -0.133186 1
378 203 0.701307 0.316020 -0.130793 1
380 203 0.668669 0.356265 -0.126981 1
382 203 0.637230 0.391657 -0.117413 1
384 203 0.606574 0.424434 -0.103166 1
386 203 0.579091 0.457602 -0.087150 1
388 203 0.553689 0.488116 -0.074866 1
390 203 0.529616 0.512586 -0.062318 1
392 203 0.508217 0.529717 -0.049606 1
394 203 0.487467 0.542208 -0.036825 1
396 203 0.468674 0.554741 -0.020935 1
398 203 0.455032 0.567067 -0.003979 1
400 203 0.444849 0.577486 0.003846 1
402 203 0.437705 0.583456 0.001764 1
404 203 0.435780 0.581464 -0.001068 1
406 203 0.433356 0.573681 -0.001970 1
408 203 0.430872 0.568407 -0.002172 1
410 203 0.000000 0.000000 0.000000 0
412 203 0.000000 0.000000 0.000000 0
414 203 0.000000 0.000000 0.000000 0
416 203 0.000000 0.000000 0.000000 0
418 203 0.000000 0.000000 0.000000 0
420 203 0.000000 0.000000 0.000000 0
422 203 0.000000 0.000000 0.000000 0
424 203 0.000000 0.000000 0.000000 0
426 203 0.000000 0.000000 0.000000 0
428 203 0.000000 0.000000 0.000000 0
430 203 0.000000 0.000000 0.000000 0
432 203 0.000000 0.000000 0.000000 0
434 203 0.000000 0.000000 0.000000 0
436 203 0.000000 0.000000 0.000000 0
438 203 0.000000 0.000000 0.000000 0
440 203 0.000000 0.000000 0.000000 0
442 203 0.000000 0.000000 0.000000 0
444 203 0.000000 0.000000 0.000000 0
446 203 0.000000 0.000000 0.000000 0
308 205 0.000000 0.000000 0.000000 0
310 205 0.000000 0.000000 0.000000 0
312 205 0.000000 0.000000 0.000000 0
314 205 0.000000 0.000000 0.000000 0
316 205 -0.043266 0.036815 0.236145 1
318 205 -0.008893 -0.050833 0.233876 1
320 205 0.064472 -0.164315 0.132508 1
322 205 0.118676 -0.266743 0.040735 1
324 205 0.149017 -0.362857 0.004909 1
326 205 0.185284 -0.443205 -0.030816 1
328 205 0.228299 -0.510298 -0.068267 1
330 205 0.266772 -0.564359 -0.084231 1
332 205 0.313096 -0.605591 -0.090175 1
334 205 0.366092 -0.635920 -0.109969 1
336 205 0.409669 -0.653767 -0.151391 1
338 205 0.434308 -0.659812 -0.208113 1
340 205 0.448330 -0.660151 -0.262246 1
342 205 0.466720 -0.649597 -0.302044 1
344 205 0.491776 -0.630104 -0.321797 1
346 205 0.529626 -0.603101 -0.320252 1
348 205 0.577883 -0.565643 -0.294682 1
350 205 0.631930 -0.519427 -0.259603 1
352 205 0.678193 -0.462778 -0.224743 1
354 205 0.714693 -0.399820 -0.202599 1
356 205 0.746725 -0.336745 -0.190358 1
358 205 0.774042 -0.271753 -0.183986 1
360 205 0.799351 -0.207257 -0.176873 1
362 205 0.817547 -0.140041 -0.167072 1
364 205 0.829311 -0.071545 -0.157648 1
366 205 0.834080 -0.004975 -0.149927 1
368 205 0.831371 0.058817 -0.142067 1
370 205 0.826018 0.120071 -0.135620 1
372 205 0.816309 0.180879 -0.131205 1
374 205 0.800212 0.240193 -0.130684 1
376 205 0.772707 0.295937 -0.132816 1
378 205 0.736710 0.344924 -0.136566 1
380 205 0.700213 0.388852 -0.138393 1
382 205 0.665756 0.426370 -0.129917 1
384 205 0.633995 0.460090 -0.111045 1
386 205 0.605845 0.493499 -0.085967 1
388 205 0.579269 0.523787 -0.065890 1
390 205 0.552300 0.547531 -0.049434 1
392 205 0.526293 0.562702 -0.035484 1
394 205 0.499982 0.572509 -0.024386 1
396 205 0.473815 0.580784 -0.016930 1
398 205 0.455228 0.588657 -0.011031 1
400 205 0.444187 0.592942 -0.011303 1
402 205 0.442390 0.592499 -0.010876 1
404 205 0.450185 0.583909 -0.004012 1
406 205 0.458737 0.569990 0.006280 1
408 205 0.460885 0.563132 0.012151 1
410 205 0.000000 0.000000 0.000000 0
412 205 0.000000 0.000000 0.000000 0
414 205 0.000000 0.000000 0.000000 0
416 205 0.000000 0.000000 0.000000 0
418 205 0.000000 0.000000 0.000000 0
420 205 0.000000 0.000000 0.000000 0
422 205 0.000000 0.000000 0.000000 0
424 205 0.000000 0.000000 0.000000 0
426 205 0.000000 0.000000 0.000000 0
428 205 0.000000 0.000000 0.000000 0
430 205 0.000000 0.000000 0.000000 0
432 205 0.000000 0.000000 0.000000 0
434 205 0.000000 0.000000 0.000000 0
436 205 0.000000 0.000000 0.000000 0
438 205 0.000000 0.000000 0.000000 0
440 205 0.000000 0.000000 0.000000 0
442 205 0.000000 0.000000 0.000000 0
444 205 0.000000 0.000000 0.000000 0
446 205 0.000000 0.000000 0.000000 0
308 207 0.000000 0.000000 0.000000 0
310 207 0.000000 0.000000 0.000000 0
312 207 0.000000 0.000000 0.000000 0
314 207 0.000000 0.000000 0.000000 0
316 207 0.174020 0.029697 0.278984 1
318 207 0.223871 -0.076849 0.314618 1
320 207 0.320911 -0.204521 0.236992 1
322 207 0.394801 -0.314216 0.151458 1
324 207 0.428311 -0.414290 0.122700 1
326 207 0.463238 -0.497056 0.094604 1
328 207 0.508653 -0.563987 0.057466 1
330 207 0.549453 -0.616606 0.037346 1
332 207 0.592894 -0.655162 0.021460 1
334 207 0.638006 -0.681216 -0.017815 1
336 207 0.668745 -0.692402 -0.085802 1
338 207 0.674298 -0.691695 -0.171175 1
340 207 0.665460 -0.687205 -0.246877 1
342 207 0.660425 -0.674280 -0.296662 1
344 207 0.668292 -0.655176 -0.313924 1
346 207 0.687638 -0.631181 -0.305128 1
348 207 0.718985 -0.597483 -0.278923 1
350 207 0.753304 -0.554892 -0.252878 1
352 207 0.780563 -0.500008 -0.233189 1
354 207 0.801188 -0.436639 -0.222971 1
356 207 0.821110 -0.369894 -0.217734 1
358 207 0.841340 -0.299908 -0.212200 1
360 207 0.862055 -0.228469 -0.202198 1
362 207 0.878204 -0.154684 -0.187433 1
364 207 0.888878 -0.078888 -0.173705 1
366 207 0.893068 -0.004864 -0.164745 1
368 207 0.890022 0.065371 -0.156741 1
370 207 0.883552 0.132667 -0.148332 1
372 207 0.872191 0.198273 -0.138677 1
374 207 0.853241 0.263247 -0.131330 1
376 207 0.822526 0.324240 -0.129890 1
378 207 0.783340 0.377885 -0.132394 1
380 207 0.743299 0.425168 -0.133729 1
382 207 0.705348 0.464163 -0.123994 1
384 207 0.669883 0.498459 -0.102964 1
386 207 0.638341 0.531274 -0.076018 1
388 207 0.607356 0.559706 -0.053069 1
390 207 0.575621 0.581351 -0.035212 1
392 207 0.544309 0.593974 -0.021522 1
394 207 0.511566 0.600529 -0.014000 1
396 207 0.479734 0.605014 -0.013018 1
398 207 0.456175 0.606784 -0.016230 1
400 207 0.444971 0.604642 -0.017530 1
402 207 0.448527 0.596519 -0.008940 1
404 207 0.465843 0.580454 0.011596 1
406 207 0.483549 0.560245 0.033481 1
408 207 0.490991 0.551838 0.045479 1
410 207 0.000000 0.000000 0.000000 0
412 207 0.000000 0.000000 0.000000 0
414 207 0.000000 0.000000 0.000000 0
416 207 0.000000 0.000000 0.000000 0
418 207 0.000000 0.000000 0.000000 0
420 207 0.000000 0.000000 0.000000 0
422 207 0.000000 0.000000 0.000000 0
424 207 0.000000 0.000000 0.000000 0
426 207 0.000000 0.000000 0.000000 0
428 207 0.000000 0.000000 0.000000 0
430 207 0.000000 0.000000 0.000000 0
432 207 0.000000 0.000000 0.000000 0
434 207 0.000000 0.000000 0.000000 0
436 207 0.000000 0.000000 0.000000 0
438 207 0.000000 0.000000 0.000000 0
440 207 0.000000 0.000000 0.000000 0
442 207 0.000000 0.000000 0.000000 0
444 207 0.000000 0.000000 0.000000 0
446 207 0.000000 0.000000 0.000000 0
308 209 0.000000 0.000000 0.000000 0
310 209 0.000000 0.000000 0.000000 0
312 209 0.000000 0.000000 0.000000 0
314 209 0.000000 0.000000 0.000000 0
316 209 0.483419 0.008812 0.280858 1
318 209 0.544829 -0.108761 0.337331 1
320 209 0.645064 -0.244598 0.299012 1
322 209 0.717376 -0.356438 0.238939 1
324 209 0.748726 -0.457752 0.229236 1
326 209 0.786491 -0.542506 0.213954 1
328 209 0.837904 -0.609736 0.178903 1
330 209 0.882638 -0.660799 0.147150 1
332 209 0.924759 -0.697138 0.113560 1
334 209 0.967147 -0.718148 0.054906 1
336 209 0.996596 -0.722571 -0.020017 1
338 209 0.997294 -0.713366 -0.108129 1
340 209 0.973360 -0.701718 -0.189952 1
342 209 0.948936 -0.683506 -0.244440 1
344 209 0.935834 -0.660631 -0.264265 1
346 209 0.937359 -0.635155 -0.257102 1
348 209 0.945800 -0.600924 -0.244001 1
350 209 0.957066 -0.559828 -0.238146 1
352 209 0.956419 -0.509019 -0.240242 1
354 209 0.948431 -0.450915 -0.242174 1
356 209 0.944204 -0.387453 -0.241616 1
358 209 0.943406 -0.317894 -0.236243 1
360 209 0.951113 -0.244207 -0.224468 1
362 209 0.957075 -0.166243 -0.205660 1
364 209 0.962568 -0.085336 -0.188317 1
366 209 0.964258 -0.004767 -0.177206 1
368 209 0.961139 0.073155 -0.168449 1
370 209 0.954763 0.147573 -0.158613 1
372 209 0.942326 0.220806 -0.144976 1
374 209 0.921018 0.291701 -0.133357 1
376 209 0.886944 0.358226 -0.126763 1
378 209 0.845478 0.415284 -0.122442 1
380 209 0.803115 0.464782 -0.115399 1
382 209 0.762204 0.504841 -0.099024 1
384 209 0.723162 0.539517 -0.076277 1
386 209 0.684918 0.571102 -0.053558 1
388 209 0.646721 0.596545 -0.034681 1
390 209 0.607689 0.614121 -0.019101 1
392 209 0.572039 0.623195 -0.004208 1
394 209 0.536475 0.626385 0.005856 1
396 209 0.503842 0.626910 0.010846 1
398 209 0.480878 0.623793 0.012193 1
400 209 0.471599 0.614146 0.019989 1
402 209 0.477812 0.599159 0.038261 1
404 209 0.498916 0.575780 0.069411 1
406 209 0.520260 0.550162 0.097712 1
408 209 0.529840 0.541541 0.110443 1
410 209 0.000000 0.000000 0.000000 0
412 209 0.000000 0.000000 0.000000 0
414 209 0.000000 0.000000 0.000000 0
416 209 0.000000 0.000000 0.000000 0
418 209 0.000000 0.000000 0.000000 0
420 209 0.000000 0.000000 0.000000 0
422 209 0.000000 0.000000 0.000000 0
424 209 0.000000 0.000000 0.000000 0
426 209 0.000000 0.000000 0.000000 0
428 209 0.000000 0.000000 0.000000 0
430 209 0.000000 0.000000 0.000000 0
432 209 0.000000 0.000000 0.000000 0
434 209 0.000000 0.000000 0.000000 0
436 209 0.000000 0.000000 0.000000 0
438 209 0.000000 0.000000 0.000000 0
440 209 0.000000 0.000000 0.000000 0
442 209 0.000000 0.000000 0.000000 0
444 209 0.000000 0.000000 0.000000 0
446 209 0.000000 0.000000 0.000000 0
308 211 0.000000 0.000000 0.000000 0
310 211 0.000000 0.000000 0.000000 0
312 211 0.000000 0.000000 0.000000 0
314 211 0.000000 0.000000 0.000000 0
316 211 0.827442 -0.035804 0.311893 1
318 211 0.899424 -0.155416 0.361853 1
320 211 0.989672 -0.288631 0.333934 1
322 211 1.046196 -0.396198 0.291730 1
324 211 1.075605 -0.496019 0.288486 1
326 211 1.121770 -0.583125 0.279920 1
328 211 1.182967 -0.652704 0.246817 1
330 211 1.234058 -0.703212 0.207471 1
332 211 1.278471 -0.736935 0.161001 1
334 211 1.323048 -0.753744 0.105219 1
336 211 1.357400 -0.750625 0.053044 1
338 211 1.361320 -0.732985 -0.013929 1
340 211 1.332182 -0.711671 -0.087661 1
342 211 1.292743 -0.684819 -0.146302 1
344 211 1.261599 -0.654152 -0.177265 1
346 211 1.241418 -0.621849 -0.186061 1
348 211 1.228943 -0.583029 -0.194039 1
350 211 1.213001 -0.540392 -0.216296 1
352 211 1.184980 -0.492817 -0.239463 1
354 211 1.145008 -0.441788 -0.253908 1
356 211 1.108703 -0.386196 -0.257265 1
358 211 1.080301 -0.323195 -0.250944 1
360 211 1.062827 -0.253522 -0.237350 1
362 211 1.052281 -0.176546 -0.217307 1
364 211 1.044840 -0.093629 -0.199480 1
366 211 1.040309 -0.008249 -0.188465 1
368 211 1.035016 0.077455 -0.179856 1
370 211 1.028310 0.160880 -0.169377 1
372 211 1.015046 0.242368 -0.154998 1
374 211 0.991143 0.321445 -0.142576 1
376 211 0.954105 0.393281 -0.133905 1
378 211 0.910907 0.454458 -0.122176 1
380 211 0.867872 0.506408 -0.104454 1
382 211 0.826439 0.548142 -0.077323 1
384 211 0.785581 0.583747 -0.048520 1
386 211 0.742769 0.614523 -0.026709 1
388 211 0.696210 0.635954 -0.011727 1
390 211 0.651561 0.649052 0.003503 1
392 211 0.614463 0.653627 0.025681 1
394 211 0.580545 0.653372 0.047081 1
396 211 0.551389 0.650713 0.064264 1
398 211 0.532255 0.643367 0.076820 1
400 211 0.525340 0.629096 0.093435 1
402 211 0.532650 0.608144 0.121029 1
404 211 0.553290 0.580021 0.157856 1
406 211 0.574437 0.550301 0.188534 1
408 211 0.588105 0.540758 0.199557 1
410 211 0.000000 0.000000 0.000000 0
412 211 0.000000 0.000000 0.000000 0
414 211 0.000000 0.000000 0.000000 0
416 211 0.000000 0.000000 0.000000 0
418 211 0.000000 0.000000 0.000000 0
420 211 0.000000 0.000000 0.000000 0
422 211 0.000000 0.000000 0.000000 0
424 211 0.000000 0.000000 0.000000 0
426 211 0.000000 0.000000 0.000000 0
428 211 0.000000 0.000000 0.000000 0
430 211 0.000000 0.000000 0.000000 0
432 211 0.000000 0.000000 0.000000 0
434 211 0.000000 0.000000 0.000000 0
436 211 0.000000 0.000000 0.000000 0
438 211 0.000000 0.000000 0.000000 0
440 211 0.000000 0.000000 0.000000 0
442 211 0.000000 0.000000 0.000000 0
444 211 0.000000 0.000000 0.000000 0
446 211 0.000000 0.000000 0.000000 0
308 213 0.000000 0.000000 0.000000 0
310 213 0.000000 0.000000 0.000000 0
312 213 0.000000 0.000000 0.000000 0
314 213 0.000000 0.000000 0.000000 0
316 213 1.165588 -0.089775 0.361790 1
318 213 1.237444 -0.203996 0.391790 1
320 213 1.315617 -0.328330 0.356207 1
322 213 1.359510 -0.429921 0.310925 1
324 213 1.392349 -0.527144 0.295011 1
326 213 1.449325 -0.616506 0.279954 1
328 213 1.520040 -0.689533 0.246226 1
330 213 1.576434 -0.739468 0.206465 1
332 213 1.624074 -0.769783 0.163934 1
334 213 1.670711 -0.780444 0.136325 1
336 213 1.705942 -0.770477 0.123366 1
338 213 1.710036 -0.742888 0.093034 1
340 213 1.680238 -0.711957 0.028214 1
342 213 1.635260 -0.674471 -0.036558 1
344 213 1.593658 -0.633573 -0.082834 1
346 213 1.559644 -0.592043 -0.112395 1
348 213 1.528487 -0.545841 -0.146490 1
350 213 1.494020 -0.500246 -0.188969 1
352 213 1.442930 -0.453931 -0.230098 1