TITLE = "B00019"
VARIABLES = "X", "Y", "Vx", "Vy", "Vz", "flag"
ZONE T="B00019", I=70, J=78
308 191 0.000000 0.000000 0.000000 0
310 191 0.000000 0.000000 0.000000 0
312 191 0.000000 0.000000 0.000000 0
314 191 0.000000 0.000000 0.000000 0
316 191 0.000000 0.000000 0.000000 0
318 191 0.000000 0.000000 0.000000 0
320 191 0.000000 0.000000 0.000000 0
322 191 0.000000 0.000000 0.000000 0
324 191 0.000000 0.000000 0.000000 0
326 191 0.000000 0.000000 0.000000 0
328 191 0.000000 0.000000 0.000000 0
330 191 0.000000 0.000000 0.000000 0
332 191 0.000000 0.000000 0.000000 0
334 191 0.000000 0.000000 0.000000 0
336 191 0.000000 0.000000 0.000000 0
338 191 0.000000 0.000000 0.000000 0
340 191 0.000000 0.000000 0.000000 0
342 191 0.000000 0.000000 0.000000 0
344 191 0.000000 0.000000 0.000000 0
346 191 0.000000 0.000000 0.000000 0
348 191 0.000000 0.000000 0.000000 0
350 191 0.000000 0.000000 0.000000 0
352 191 0.000000 0.000000 0.000000 0
354 191 0.000000 0.000000 0.000000 0
356 191 0.000000 0.000000 0.000000 0
358 191 0.000000 0.000000 0.000000 0
360 191 0.000000 0.000000 0.000000 0
362 191 0.000000 0.000000 0.000000 0
364 191 0.000000 0.000000 0.000000 0
366 191 0.000000 0.000000 0.000000 0
368 191 0.000000 0.000000 0.000000 0
370 191 0.000000 0.000000 0.000000 0
372 191 0.000000 0.000000 0.000000 0
374 191 0.000000 0.000000 0.000000 0
376 191 0.000000 0.000000 0.000000 0
378 191 0.000000 0.000000 0.000000 0
380 191 0.000000 0.000000 0.000000 0
382 191 0.000000 0.000000 0.000000 0
384 191 0.000000 0.000000 0.000000 0
386 191 0.000000 0.000000 0.000000 0
388 191 0.000000 0.000000 0.000000 0
390 191 0.000000 0.000000 0.000000 0
392 191 0.000000 0.000000 0.000000 0
394 191 0.000000 0.000000 0.000000 0
396 191 0.000000 0.000000 0.000000 0
398 191 0.000000 0.000000 0.000000 0
400 191 0.000000 0.000000 0.000000 0
402 191 0.000000 0.000000 0.000000 0
404 191 0.000000 0.000000 0.000000 0
406 191 0.000000 0.000000 0.000000 0
408 191 0.000000 0.000000 0.000000 0
410 191 0.000000 0.000000 0.000000 0
412 191 0.000000 0.000000 0.000000 0
414 191 0.000000 0.000000 0.000000 0
416 191 0.000000 0.000000 0.000000 0
418 191 0.000000 0.000000 0.000000 0
420 191 0.000000 0.000000 0.000000 0
422 191 0.000000 0.000000 0.000000 0
424 191 0.000000 0.000000 0.000000 0
426 191 0.000000 0.000000 0.000000 0
428 191 0.000000 0.000000 0.000000 0
430 191 0.000000 0.000000 0.000000 0
432 191 0.000000 0.000000 0.000000 0
434 191 0.000000 0.000000 0.000000 0
436 191 0.000000 0.000000 0.000000 0
438 191 0.000000 0.000000 0.000000 0
440 191 0.000000 0.000000 0.000000 0
442 191 0.000000 0.000000 0.000000 0
444 191 0.000000 0.000000 0.000000 0
446 191 0.000000 0.000000 0.000000 0
308 193 0.000000 0.000000 0.000000 0
310 193 0.000000 0.000000 0.000000 0
312 193 0.000000 0.000000 0.000000 0
314 193 0.000000 0.000000 0.000000 0
316 193 0.000000 0.000000 0.000000 0
318 193 0.000000 0.000000 0.000000 0
320 193 0.000000 0.000000 0.000000 0
322 193 0.000000 0.000000 0.000000 0
324 193 0.000000 0.000000 0.000000 0
326 193 0.000000 0.000000 0.000000 0
328 193 0.000000 0.000000 0.000000 0
330 193 0.000000 0.000000 0.000000 0
332 193 0.000000 0.000000 0.000000 0
334 193 0.000000 0.000000 0.000000 0
336 193 0.000000 0.000000 0.000000 0
338 193 0.000000 0.000000 0.000000 0
340 193 0.000000 0.000000 0.000000 0
342 193 0.000000 0.000000 0.000000 0
344 193 0.000000 0.000000 0.000000 0
346 193 0.000000 0.000000 0.000000 0
348 193 0.000000 0.000000 0.000000 0
350 193 0.000000 0.000000 0.000000 0
352 193 0.000000 0.000000 0.000000 0
354 193 0.000000 0.000000 0.000000 0
356 193 0.000000 0.000000 0.000000 0
358 193 0.000000 0.000000 0.000000 0
360 193 0.000000 0.000000 0.000000 0
362 193 0.000000 0.000000 0.000000 0
364 193 0.000000 0.000000 0.000000 0
366 193 0.000000 0.000000 0.000000 0
368 193 0.000000 0.000000 0.000000 0
370 193 0.000000 0.000000 0.000000 0
372 193 0.000000 0.000000 0.000000 0
374 193 0.000000 0.000000 0.000000 0
376 193 0.000000 0.000000 0.000000 0
378 193 0.000000 0.000000 0.000000 0
380 193 0.000000 0.000000 0.000000 0
382 193 0.000000 0.000000 0.000000 0
384 193 0.000000 0.000000 0.000000 0
386 193 0.000000 0.000000 0.000000 0
388 193 0.000000 0.000000 0.000000 0
390 193 0.000000 0.000000 0.000000 0
392 193 0.000000 0.000000 0.000000 0
394 193 0.000000 0.000000 0.000000 0
396 193 0.000000 0.000000 0.000000 0
398 193 0.000000 0.000000 0.000000 0
400 193 0.000000 0.000000 0.000000 0
402 193 0.000000 0.000000 0.000000 0
404 193 0.000000 0.000000 0.000000 0
406 193 0.000000 0.000000 0.000000 0
408 193 0.000000 0.000000 0.000000 0
410 193 0.000000 0.000000 0.000000 0
412 193 0.000000 0.000000 0.000000 0
414 193 0.000000 0.000000 0.000000 0
416 193 0.000000 0.000000 0.000000 0
418 193 0.000000 0.000000 0.000000 0
420 193 0.000000 0.000000 0.000000 0
422 193 0.000000 0.000000 0.000000 0
424 193 0.000000 0.000000 0.000000 0
426 193 0.000000 0.000000 0.000000 0
428 193 0.000000 0.000000 0.000000 0
430 193 0.000000 0.000000 0.000000 0
432 193 0.000000 0.000000 0.000000 0
434 193 0.000000 0.000000 0.000000 0
436 193 0.000000 0.000000 0.000000 0
438 193 0.000000 0.000000 0.000000 0
440 193 0.000000 0.000000 0.000000 0
442 193 0.000000 0.000000 0.000000 0
444 193 0.000000 0.000000 0.000000 0
446 193 0.000000 0.000000 0.000000 0
308 195 0.000000 0.000000 0.000000 0
310 195 0.000000 0.000000 0.000000 0
312 195 0.000000 0.000000 0.000000 0
314 195 0.000000 0.000000 0.000000 0
316 195 0.000000 0.000000 0.000000 0
318 195 0.000000 0.000000 0.000000 0
320 195 0.000000 0.000000 0.000000 0
322 195 0.000000 0.000000 0.000000 0
324 195 0.000000 0.000000 0.000000 0
326 195 0.000000 0.000000 0.000000 0
328 195 0.000000 0.000000 0.000000 0
330 195 0.000000 0.000000 0.000000 0
332 195 0.000000 0.000000 0.000000 0
334 195 0.000000 0.000000 0.000000 0
336 195 0.000000 0.000000 0.000000 0
338 195 0.000000 0.000000 0.000000 0
340 195 0.000000 0.000000 0.000000 0
342 195 0.000000 0.000000 0.000000 0
344 195 0.000000 0.000000 0.000000 0
346 195 0.000000 0.000000 0.000000 0
348 195 0.000000 0.000000 0.000000 0
350 195 0.000000 0.000000 0.000000 0
352 195 0.000000 0.000000 0.000000 0
354 195 0.000000 0.000000 0.000000 0
356 195 0.000000 0.000000 0.000000 0
358 195 0.000000 0.000000 0.000000 0
360 195 0.000000 0.000000 0.000000 0
362 195 0.000000 0.000000 0.000000 0
364 195 0.000000 0.000000 0.000000 0
366 195 0.000000 0.000000 0.000000 0
368 195 0.000000 0.000000 0.000000 0
370 195 0.000000 0.000000 0.000000 0
372 195 0.000000 0.000000 0.000000 0
374 195 0.000000 0.000000 0.000000 0
376 195 0.000000 0.000000 0.000000 0
378 195 0.000000 0.000000 0.000000 0
380 195 0.000000 0.000000 0.000000 0
382 195 0.000000 0.000000 0.000000 0
384 195 0.000000 0.000000 0.000000 0
386 195 0.000000 0.000000 0.000000 0
388 195 0.000000 0.000000 0.000000 0
390 195 0.000000 0.000000 0.000000 0
392 195 0.000000 0.000000 0.000000 0
394 195 0.000000 0.000000 0.000000 0
396 195 0.000000 0.000000 0.000000 0
398 195 0.000000 0.000000 0.000000 0
400 195 0.000000 0.000000 0.000000 0
402 195 0.000000 0.000000 0.000000 0
404 195 0.000000 0.000000 0.000000 0
406 195 0.000000 0.000000 0.000000 0
408 195 0.000000 0.000000 0.000000 0
410 195 0.000000 0.000000 0.000000 0
412 195 0.000000 0.000000 0.000000 0
414 195 0.000000 0.000000 0.000000 0
416 195 0.000000 0.000000 0.000000 0
418 195 0.000000 0.000000 0.000000 0
420 195 0.000000 0.000000 0.000000 0
422 195 0.000000 0.000000 0.000000 0
424 195 0.000000 0.000000 0.000000 0
426 195 0.000000 0.000000 0.000000 0
428 195 0.000000 0.000000 0.000000 0
430 195 0.000000 0.000000 0.000000 0
432 195 0.000000 0.000000 0.000000 0
434 195 0.000000 0.000000 0.000000 0
436 195 0.000000 0.000000 0.000000 0
438 195 0.000000 0.000000 0.000000 0
440 195 0.000000 0.000000 0.000000 0
442 195 0.000000 0.000000 0.000000 0
444 195 0.000000 0.000000 0.000000 0
446 195 0.000000 0.000000 0.000000 0
308 197 0.000000 0.000000 0.000000 0
310 197 0.000000 0.000000 0.000000 0
312 197 0.000000 0.000000 0.000000 0
314 197 0.000000 0.000000 0.000000 0
316 197 0.000000 0.000000 0.000000 0
318 197 -0.103212 0.311851 -0.000522 1
320 197 -0.122648 0.270350 -0.011051 1
322 197 -0.175766 0.238252 0.004553 1
324 197 -0.234018 0.208128 0.007591 1
326 197 -0.277690 0.168673 -0.013719 1
328 197 -0.306203 0.114186 -0.049421 1
330 197 -0.319285 0.046489 -0.080461 1
332 197 -0.314329 -0.028584 -0.102994 1
334 197 -0.297046 -0.103141 -0.112256 1
336 197 -0.274236 -0.168916 -0.114401 1
338 197 -0.247329 -0.232089 -0.112615 1
340 197 -0.218460 -0.299800 -0.121473 1
342 197 -0.184167 -0.362054 -0.154875 1
344 197 -0.141814 -0.419008 -0.196312 1
346 197 -0.093391 -0.466336 -0.208420 1
348 197 -0.036189 -0.502505 -0.184560 1
350 197 0.025830 -0.533053 -0.159105 1
352 197 0.089747 -0.554017 -0.142475 1
354 197 0.159944 -0.564368 -0.132628 1
356 197 0.232701 -0.560619 -0.125745 1
358 197 0.297542 -0.540073 -0.123421 1
360 197 0.355107 -0.515108 -0.129373 1
362 197 0.411080 -0.481860 -0.147903 1
364 197 0.466375 -0.441125 -0.171330 1
366 197 0.517850 -0.398708 -0.189991 1
368 197 0.562199 -0.354374 -0.191099 1
370 197 0.600083 -0.310566 -0.181614 1
372 197 0.628250 -0.265757 -0.171439 1
374 197 0.648875 -0.218793 -0.167968 1
376 197 0.661447 -0.166981 -0.168329 1
378 197 0.671846 -0.113248 -0.165647 1
380 197 0.689093 -0.064198 -0.163218 1
382 197 0.707770 -0.017549 -0.159396 1
384 197 0.718579 0.028712 -0.154083 1
386 197 0.716114 0.074425 -0.151251 1
388 197 0.707442 0.119956 -0.149141 1
390 197 0.700770 0.166796 -0.143804 1
392 197 0.696245 0.214755 -0.138121 1
394 197 0.688906 0.262784 -0.135828 1
396 197 0.675292 0.307073 -0.135062 1
398 197 0.653795 0.346153 -0.139469 1
400 197 0.621909 0.389217 -0.145307 1
402 197 0.588182 0.434337 -0.137966 1
404 197 0.617412 0.471434 -0.136072 1
406 197 0.000000 0.000000 0.000000 0
408 197 0.000000 0.000000 0.000000 0
410 197 0.000000 0.000000 0.000000 0
412 197 0.000000 0.000000 0.000000 0
414 197 0.000000 0.000000 0.000000 0
416 197 0.000000 0.000000 0.000000 0
418 197 0.000000 0.000000 0.000000 0
420 197 0.000000 0.000000 0.000000 0
422 197 0.000000 0.000000 0.000000 0
424 197 0.000000 0.000000 0.000000 0
426 197 0.000000 0.000000 0.000000 0
428 197 0.000000 0.000000 0.000000 0
430 197 0.000000 0.000000 0.000000 0
432 197 0.000000 0.000000 0.000000 0
434 197 0.000000 0.000000 0.000000 0
436 197 0.000000 0.000000 0.000000 0
438 197 0.000000 0.000000 0.000000 0
440 197 0.000000 0.000000 0.000000 0
442 197 0.000000 0.000000 0.000000 0
444 197 0.000000 0.000000 0.000000 0
446 197 0.000000 0.000000 0.000000 0
308 199 0.000000 0.000000 0.000000 0
310 199 0.000000 0.000000 0.000000 0
312 199 0.000000 0.000000 0.000000 0
314 199 0.000000 0.000000 0.000000 0
316 199 -0.062041 0.391611 0.024348 1
318 199 -0.098805 0.369479 0.028666 1
320 199 -0.157938 0.345508 0.032146 1
322 199 -0.208580 0.305711 0.036023 1
324 199 -0.258139 0.261709 0.032030 1
326 199 -0.295532 0.207402 0.013561 1
328 199 -0.318500 0.135610 -0.012872 1
330 199 -0.322781 0.051137 -0.032179 1
332 199 -0.304268 -0.042444 -0.042579 1
334 199 -0.267173 -0.139007 -0.041734 1
336 199 -0.228723 -0.222008 -0.044449 1
338 199 -0.190184 -0.300395 -0.052866 1
340 199 -0.156740 -0.378543 -0.069669 1
342 199 -0.119331 -0.451476 -0.107040 1
344 199 -0.073632 -0.517231 -0.155569 1
346 199 -0.021932 -0.570771 -0.186719 1
348 199 0.037425 -0.609183 -0.196950 1
350 199 0.100889 -0.639198 -0.198803 1
352 199 0.165022 -0.656976 -0.201681 1
354 199 0.233875 -0.663078 -0.200893 1
356 199 0.305068 -0.653357 -0.202566 1
358 199 0.368184 -0.626249 -0.209318 1
360 199 0.424970 -0.595090 -0.221837 1
362 199 0.479642 -0.555328 -0.239447 1
364 199 0.533213 -0.508870 -0.254182 1
366 199 0.582049 -0.458934 -0.257293 1
368 199 0.624122 -0.406796 -0.246479 1
370 199 0.660792 -0.354531 -0.229167 1
372 199 0.691253 -0.302336 -0.214876 1
374 199 0.717487 -0.249731 -0.207952 1
376 199 0.739155 -0.192498 -0.203618 1
378 199 0.755109 -0.133595 -0.196984 1
380 199 0.772134 -0.077540 -0.191220 1
382 199 0.786433 -0.024188 -0.186792 1
384 199 0.793051 0.028179 -0.183028 1
386 199 0.789015 0.078775 -0.182123 1
388 199 0.780332 0.127872 -0.178224 1
390 199 0.773945 0.177595 -0.163372 1
392 199 0.768562 0.227069 -0.145906 1
394 199 0.758214 0.277150 -0.133379 1
396 199 0.741027 0.325180 -0.131681 1
398 199 0.718014 0.369459 -0.140888 1
400 199 0.690199 0.417584 -0.153908 1
402 199 0.663560 0.465762 -0.151835 1
404 199 0.639044 0.507171 -0.124762 1
406 199 0.669034 0.539333 -0.110298 1
408 199 0.000000 0.000000 0.000000 0
410 199 0.000000 0.000000 0.000000 0
412 199 0.000000 0.000000 0.000000 0
414 199 0.000000 0.000000 0.000000 0
416 199 0.000000 0.000000 0.000000 0
418 199 0.000000 0.000000 0.000000 0
420 199 0.000000 0.000000 0.000000 0
422 199 0.000000 0.000000 0.000000 0
424 199 0.000000 0.000000 0.000000 0
426 199 0.000000 0.000000 0.000000 0
428 199 0.000000 0.000000 0.000000 0
430 199 0.000000 0.000000 0.000000 0
432 199 0.000000 0.000000 0.000000 0
434 199 0.000000 0.000000 0.000000 0
436 199 0.000000 0.000000 0.000000 0
438 199 0.000000 0.000000 0.000000 0
440 199 0.000000 0.000000 0.000000 0
442 199 0.000000 0.000000 0.000000 0
444 199 0.000000 0.000000 0.000000 0
446 199 0.000000 0.000000 0.000000 0
308 201 0.000000 0.000000 0.000000 0
310 201 0.000000 0.000000 0.000000 0
312 201 0.000000 0.000000 0.000000 0
314 201 0.000000 0.000000 0.000000 0
316 201 -0.053430 0.452576 0.044766 1
318 201 -0.093087 0.451228 0.070944 1
320 201 -0.158417 0.419245 0.065568 1
322 201 -0.202910 0.367781 0.059325 1
324 201 -0.240927 0.308852 0.050263 1
326 201 -0.267813 0.235639 0.036738 1
328 201 -0.283085 0.148401 0.021829 1
330 201 -0.273281 0.047951 0.022319 1
332 201 -0.235752 -0.063392 0.036501 1
334 201 -0.179591 -0.177662 0.060035 1
336 201 -0.125044 -0.275951 0.065174 1
338 201 -0.078268 -0.362478 0.048896 1
340 201 -0.039153 -0.446948 0.017246 1
342 201 0.001683 -0.524835 -0.029295 1
344 201 0.049886 -0.595232 -0.087902 1
346 201 0.100197 -0.652576 -0.138315 1
348 201 0.154338 -0.692809 -0.175289 1
350 201 0.211859 -0.722912 -0.201862 1
352 201 0.269473 -0.739157 -0.216538 1
354 201 0.327295 -0.742361 -0.225942 1
356 201 0.387179 -0.729980 -0.236533 1
358 201 0.437971 -0.699924 -0.254393 1
360 201 0.487249 -0.664956 -0.273985 1
362 201 0.537705 -0.621485 -0.291802 1
364 201 0.588465 -0.570289 -0.299331 1
366 201 0.635430 -0.515448 -0.293217 1
368 201 0.675256 -0.456311 -0.274970 1
370 201 0.710976 -0.396824 -0.254619 1
372 201 0.742948 -0.337838 -0.239210 1
374 201 0.774030 -0.279905 -0.229517 1
376 201 0.802111 -0.219055 -0.220673 1
378 201 0.823622 -0.155389 -0.208792 1
380 201 0.840641 -0.093530 -0.200858 1
382 201 0.850800 -0.032188 -0.198555 1
384 201 0.853655 0.026878 -0.199483 1
386 201 0.848462 0.082885 -0.202715 1
388 201 0.840568 0.136505 -0.198239 1
390 201 0.834930 0.189518 -0.178069 1
392 201 0.828229 0.241328 -0.152150 1
394 201 0.814695 0.292975 -0.135215 1
396 201 0.793890 0.343833 -0.134468 1
398 201 0.770228 0.391994 -0.146938 1
400 201 0.746441 0.443544 -0.161998 1
402 201 0.727034 0.493588 -0.159688 1
404 201 0.709719 0.535603 -0.130156 1
406 201 0.688850 0.569876 -0.087449 1
408 201 0.713922 0.595839 -0.070077 1
410 201 0.000000 0.000000 0.000000 0
412 201 0.000000 0.000000 0.000000 0
414 201 0.000000 0.000000 0.000000 0
416 201 0.000000 0.000000 0.000000 0
418 201 0.000000 0.000000 0.000000 0
420 201 0.000000 0.000000 0.000000 0
422 201 0.000000 0.000000 0.000000 0
424 201 0.000000 0.000000 0.000000 0
426 201 0.000000 0.000000 0.000000 0
428 201 0.000000 0.000000 0.000000 0
430 201 0.000000 0.000000 0.000000 0
432 201 0.000000 0.000000 0.000000 0
434 201 0.000000 0.000000 0.000000 0
436 201 0.000000 0.000000 0.000000 0
438 201 0.000000 0.000000 0.000000 0
440 201 0.000000 0.000000 0.000000 0
442 201 0.000000 0.000000 0.000000 0
444 201 0.000000 0.000000 0.000000 0
446 201 0.000000 0.000000 0.000000 0
308 203 0.000000 0.000000 0.000000 0
310 203 0.000000 0.000000 0.000000 0
312 203 0.000000 0.000000 0.000000 0
314 203 0.000000 0.000000 0.000000 0
316 203 -0.025354 0.517279 0.010530 1
318 203 -0.029428 0.511547 0.105350 1
320 203 -0.078416 0.468516 0.107512 1
322 203 -0.103872 0.403621 0.101362 1
324 203 -0.119908 0.327361 0.094769 1
326 203 -0.132589 0.238964 0.089828 1
328 203 -0.134544 0.135988 0.090273 1
330 203 -0.112847 0.024479 0.108263 1
332 203 -0.063326 -0.099726 0.147452 1
334 203 -0.002637 -0.224988 0.191112 1
336 203 0.053281 -0.330784 0.204459 1
338 203 0.102233 -0.421090 0.182465 1
340 203 0.146689 -0.507305 0.141152 1
342 203 0.196112 -0.587331 0.084762 1
344 203 0.249299 -0.660239 0.019603 1
346 203 0.297865 -0.720241 -0.042673 1
348 203 0.344742 -0.761743 -0.095496 1
350 203 0.395259 -0.791388 -0.134655 1
352 203 0.443506 -0.804410 -0.159415 1
354 203 0.488763 -0.804098 -0.181185 1
356 203 0.528403 -0.789209 -0.212242 1
358 203 0.558893 -0.758048 -0.249630 1
360 203 0.590547 -0.721884 -0.283908 1
362 203 0.629043 -0.676841 -0.306707 1
364 203 0.671611 -0.623842 -0.312886 1
366 203 0.710988 -0.566321 -0.302621 1
368 203 0.744326 -0.503821 -0.282137 1
370 203 0.774289 -0.438739 -0.261303 1
372 203 0.803833 -0.373967 -0.246453 1
374 203 0.835279 -0.310593 -0.236196 1
376 203 0.865406 -0.245623 -0.224538 1
378 203 0.888283 -0.178386 -0.208996 1
380 203 0.903569 -0.110766 -0.198289 1
382 203 0.909899 -0.042620 -0.197348 1
384 203 0.908742 0.024487 -0.203344 1
386 203 0.902315 0.086575 -0.210571 1
388 203 0.894773 0.145198 -0.206930 1
390 203 0.888631 0.202183 -0.185536 1
392 203 0.879456 0.256239 -0.158649 1
394 203 0.861342 0.309329 -0.142097 1
396 203 0.837683 0.361744 -0.142225 1
398 203 0.813522 0.412816 -0.154928 1
400 203 0.792457 0.467259 -0.167927 1
402 203 0.777356 0.519180 -0.161788 1
404 203 0.765717 0.562758 -0.128434 1
406 203 0.750617 0.598570 -0.086301 1
408 203 0.742100 0.612027 -0.069957 1
410 203 0.000000 0.000000 0.000000 0
412 203 0.000000 0.000000 0.000000 0
414 203 0.000000 0.000000 0.000000 0
416 203 0.000000 0.000000 0.000000 0
418 203 0.000000 0.000000 0.000000 0
420 203 0.000000 0.000000 0.000000 0
422 203 0.000000 0.000000 0.000000 0
424 203 0.000000 0.000000 0.000000 0
426 203 0.000000 0.000000 0.000000 0
428 203 0.000000 0.000000 0.000000 0
430 203 0.000000 0.000000 0.000000 0
432 203 0.000000 0.000000 0.000000 0
434 203 0.000000 0.000000 0.000000 0
436 203 0.000000 0.000000 0.000000 0
438 203 0.000000 0.000000 0.000000 0
440 203 0.000000 0.000000 0.000000 0
442 203 0.000000 0.000000 0.000000 0
444 203 0.000000 0.000000 0.000000 0
446 203 0.000000 0.000000 0.000000 0
308 205 0.000000 0.000000 0.000000 0
310 205 0.000000 0.000000 0.000000 0
312 205 0.000000 0.000000 0.000000 0
314 205 0.000000 0.000000 0.000000 0
316 205 0.100579 0.551980 0.101349 1
318 205 0.104394 0.538491 0.164682 1
320 205 0.085665 0.481340 0.178929 1
322 205 0.092210 0.403357 0.182833 1
324 205 0.102225 0.313623 0.190786 1
326 205 0.110303 0.211498 0.205595 1
328 205 0.123408 0.098836 0.221017 1
330 205 0.154579 -0.018801 0.248411 1
332 205 0.202624 -0.147140 0.293598 1
334 205 0.251300 -0.275703 0.336107 1
336 205 0.297927 -0.384564 0.346504 1
338 205 0.345496 -0.477338 0.319385 1
340 205 0.397586 -0.566335 0.271926 1
342 205 0.457046 -0.648952 0.211472 1
344 205 0.518120 -0.725060 0.142746 1
346 205 0.566891 -0.786802 0.075943 1
348 205 0.609930 -0.827428 0.018217 1
350 205 0.655925 -0.853171 -0.025421 1
352 205 0.697677 -0.859352 -0.056094 1
354 205 0.729976 -0.851041 -0.092251 1
356 205 0.752182 -0.831538 -0.142970 1
358 205 0.757428 -0.798066 -0.205345 1
360 205 0.766864 -0.761384 -0.257451 1
362 205 0.785480 -0.716587 -0.291524 1
364 205 0.810964 -0.664174 -0.304475 1
366 205 0.834504 -0.607684 -0.298753 1
368 205 0.850035 -0.545930 -0.280186 1
370 205 0.867308 -0.479337 -0.259437 1
372 205 0.886735 -0.410092 -0.245614 1
374 205 0.912441 -0.341430 -0.237452 1
376 205 0.937656 -0.271552 -0.227772 1
378 205 0.956507 -0.200052 -0.211888 1
380 205 0.967921 -0.127965 -0.199235 1
382 205 0.970426 -0.052574 -0.196389 1
384 205 0.966861 0.021708 -0.202795 1
386 205 0.959456 0.091224 -0.210830 1
388 205 0.950856 0.155298 -0.208807 1
390 205 0.941744 0.216426 -0.191823 1
392 205 0.928265 0.273120 -0.169922 1
394 205 0.906523 0.327333 -0.155321 1
396 205 0.880565 0.380844 -0.152991 1
398 205 0.856251 0.433822 -0.162104 1
400 205 0.836729 0.491084 -0.169960 1
402 205 0.823728 0.545788 -0.160343 1
404 205 0.814501 0.592418 -0.127276 1
406 205 0.802273 0.630941 -0.090799 1
408 205 0.795397 0.644660 -0.077745 1
410 205 0.000000 0.000000 0.000000 0
412 205 0.000000 0.000000 0.000000 0
414 205 0.000000 0.000000 0.000000 0
416 205 0.000000 0.000000 0.000000 0
418 205 0.000000 0.000000 0.000000 0
420 205 0.000000 0.000000 0.000000 0
422 205 0.000000 0.000000 0.000000 0
424 205 0.000000 0.000000 0.000000 0
426 205 0.000000 0.000000 0.000000 0
428 205 0.000000 0.000000 0.000000 0
430 205 0.000000 0.000000 0.000000 0
432 205 0.000000 0.000000 0.000000 0
434 205 0.000000 0.000000 0.000000 0
436 205 0.000000 0.000000 0.000000 0
438 205 0.000000 0.000000 0.000000 0
440 205 0.000000 0.000000 0.000000 0
442 205 0.000000 0.000000 0.000000 0
444 205 0.000000 0.000000 0.000000 0
446 205 0.000000 0.000000 0.000000 0
308 207 0.000000 0.000000 0.000000 0
310 207 0.000000 0.000000 0.000000 0
312 207 0.000000 0.000000 0.000000 0
314 207 0.000000 0.000000 0.000000 0
316 207 0.263536 0.575295 0.189656 1
318 207 0.249376 0.544209 0.233381 1
320 207 0.267325 0.475926 0.265925 1
322 207 0.307314 0.387161 0.283910 1
324 207 0.339185 0.288352 0.310460 1
326 207 0.363186 0.179093 0.347088 1
328 207 0.391025 0.061964 0.378317 1
330 207 0.428755 -0.055440 0.405130 1
332 207 0.472773 -0.182902 0.438670 1
334 207 0.511164 -0.313002 0.465744 1
336 207 0.548958 -0.425955 0.461744 1
338 207 0.595443 -0.524337 0.424396 1
340 207 0.652051 -0.619333 0.368841 1
342 207 0.718988 -0.707363 0.302765 1
344 207 0.784672 -0.786595 0.233228 1
346 207 0.835914 -0.849262 0.167201 1
348 207 0.879049 -0.886989 0.110881 1
350 207 0.924435 -0.906165 0.067565 1
352 207 0.963303 -0.902422 0.033759 1
354 207 0.990193 -0.884233 -0.009436 1
356 207 1.001856 -0.856924 -0.072726 1
358 207 0.994379 -0.819714 -0.146628 1
360 207 0.984621 -0.781183 -0.212861 1
362 207 0.985278 -0.736360 -0.258298 1
364 207 0.990807 -0.684975 -0.284423 1
366 207 0.992074 -0.631111 -0.291665 1
368 207 0.984973 -0.573122 -0.280821 1
370 207 0.979966 -0.509220 -0.262277 1
372 207 0.985094 -0.439517 -0.249910 1
374 207 0.998274 -0.367704 -0.245771 1
376 207 1.014062 -0.294376 -0.240838 1
378 207 1.025469 -0.219444 -0.227579 1
380 207 1.032064 -0.143162 -0.213176 1
382 207 1.032932 -0.062374 -0.205437 1
384 207 1.029531 0.019681 -0.205928 1
386 207 1.022252 0.095609 -0.210676 1
388 207 1.011767 0.165870 -0.209304 1
390 207 0.998732 0.231313 -0.198430 1
392 207 0.981155 0.291225 -0.183609 1
394 207 0.956836 0.347365 -0.171072 1
396 207 0.930048 0.402070 -0.164971 1
398 207 0.905559 0.456883 -0.167182 1
400 207 0.886128 0.516005 -0.169537 1
402 207 0.872832 0.573392 -0.157968 1
404 207 0.862655 0.623538 -0.129905 1
406 207 0.849582 0.664930 -0.102133 1
408 207 0.844043 0.678807 -0.092582 1
410 207 0.000000 0.000000 0.000000 0
412 207 0.000000 0.000000 0.000000 0
414 207 0.000000 0.000000 0.000000 0
416 207 0.000000 0.000000 0.000000 0
418 207 0.000000 0.000000 0.000000 0
420 207 0.000000 0.000000 0.000000 0
422 207 0.000000 0.000000 0.000000 0
424 207 0.000000 0.000000 0.000000 0
426 207 0.000000 0.000000 0.000000 0
428 207 0.000000 0.000000 0.000000 0
430 207 0.000000 0.000000 0.000000 0
432 207 0.000000 0.000000 0.000000 0
434 207 0.000000 0.000000 0.000000 0
436 207 0.000000 0.000000 0.000000 0
438 207 0.000000 0.000000 0.000000 0
440 207 0.000000 0.000000 0.000000 0
442 207 0.000000 0.000000 0.000000 0
444 207 0.000000 0.000000 0.000000 0
446 207 0.000000 0.000000 0.000000 0
308 209 0.000000 0.000000 0.000000 0
310 209 0.000000 0.000000 0.000000 0
312 209 0.000000 0.000000 0.000000 0
314 209 0.000000 0.000000 0.000000 0
316 209 0.471782 0.576437 0.241775 1
318 209 0.471721 0.534338 0.296141 1
320 209 0.517324 0.452893 0.344297 1
322 209 0.576721 0.356238 0.373223 1
324 209 0.621261 0.253378 0.413323 1
326 209 0.651291 0.146043 0.462543 1
328 209 0.683310 0.034784 0.498325 1
330 209 0.722615 -0.074960 0.514815 1
332 209 0.764971 -0.198112 0.529575 1
334 209 0.800527 -0.329895 0.528680 1
336 209 0.836382 -0.449623 0.504145 1
338 209 0.881597 -0.558954 0.449925 1
340 209 0.936899 -0.664760 0.387187 1
342 209 1.001201 -0.759955 0.322335 1
344 209 1.064135 -0.841382 0.263271 1
346 209 1.114518 -0.902499 0.207454 1
348 209 1.156255 -0.934215 0.159554 1
350 209 1.200115 -0.945196 0.118439 1
352 209 1.236983 -0.930042 0.082841 1
354 209 1.263223 -0.900567 0.038777 1
356 209 1.275767 -0.864535 -0.020667 1
358 209 1.268857 -0.819701 -0.083363 1
360 209 1.254622 -0.776111 -0.143023 1
362 209 1.242962 -0.727392 -0.190098 1
364 209 1.230435 -0.674593 -0.229554 1
366 209 1.206435 -0.621892 -0.257768 1
368 209 1.169659 -0.568909 -0.266556 1
370 209 1.138156 -0.510939 -0.260053 1
372 209 1.117060 -0.447131 -0.256962 1
374 209 1.110941 -0.378320 -0.259944 1
376 209 1.108021 -0.306842 -0.262522 1
378 209 1.107503 -0.231745 -0.252402 1
380 209 1.106706 -0.153337 -0.235458 1
382 209 1.105633 -0.068063 -0.218204 1
384 209 1.103109 0.019205 -0.208367 1
386 209 1.095750 0.101150 -0.205237 1
388 209 1.082835 0.176120 -0.203689 1
390 209 1.065479 0.246128 -0.199134 1
392 209 1.045097 0.309878 -0.191306 1
394 209 1.020513 0.369414 -0.180706 1
396 209 0.994903 0.427044 -0.169743 1
398 209 0.970755 0.483590 -0.165205 1
400 209 0.949499 0.543009 -0.161182 1
402 209 0.932811 0.600735 -0.150663 1
404 209 0.917571 0.652522 -0.131976 1
406 209 0.900951 0.695498 -0.114184 1
408 209 0.894710 0.709051 -0.106117 1
410 209 0.000000 0.000000 0.000000 0
412 209 0.000000 0.000000 0.000000 0
414 209 0.000000 0.000000 0.000000 0
416 209 0.000000 0.000000 0.000000 0
418 209 0.000000 0.000000 0.000000 0
420 209 0.000000 0.000000 0.000000 0
422 209 0.000000 0.000000 0.000000 0
424 209 0.000000 0.000000 0.000000 0
426 209 0.000000 0.000000 0.000000 0
428 209 0.000000 0.000000 0.000000 0
430 209 0.000000 0.000000 0.000000 0
432 209 0.000000 0.000000 0.000000 0
434 209 0.000000 0.000000 0.000000 0
436 209 0.000000 0.000000 0.000000 0
438 209 0.000000 0.000000 0.000000 0
440 209 0.000000 0.000000 0.000000 0
442 209 0.000000 0.000000 0.000000 0
444 209 0.000000 0.000000 0.000000 0
446 209 0.000000 0.000000 0.000000 0
308 211 0.000000 0.000000 0.000000 0
310 211 0.000000 0.000000 0.000000 0
312 211 0.000000 0.000000 0.000000 0
314 211 0.000000 0.000000 0.000000 0
316 211 0.731035 0.574163 0.275222 1
318 211 0.745369 0.524227 0.337858 1
320 211 0.803770 0.431941 0.398502 1
322 211 0.876995 0.324899 0.438478 1
324 211 0.928707 0.219503 0.482560 1
326 211 0.960466 0.116710 0.531806 1
328 211 0.990432 0.013983 0.563337 1
330 211 1.027488 -0.088175 0.568171 1
332 211 1.069559 -0.205172 0.560459 1
334 211 1.108544 -0.336878 0.531611 1
336 211 1.147814 -0.463993 0.477068 1
338 211 1.193362 -0.585219 0.407069 1
340 211 1.246230 -0.704534 0.344840 1
342 211 1.304896 -0.807957 0.293191 1
344 211 1.362011 -0.890958 0.252980 1
346 211 1.407513 -0.949785 0.215386 1
348 211 1.443649 -0.976762 0.176744 1
350 211 1.480261 -0.979802 0.137803 1
352 211 1.511932 -0.955248 0.099065 1
354 211 1.536081 -0.914696 0.055122 1
356 211 1.551917 -0.868148 0.006603 1
358 211 1.551716 -0.813303 -0.033865 1
360 211 1.542217 -0.759282 -0.068932 1
362 211 1.527402 -0.702972 -0.104280 1
364 211 1.501762 -0.643727 -0.147238 1
366 211 1.458335 -0.588275 -0.192930 1
368 211 1.396913 -0.537057 -0.227637 1
370 211 1.336575 -0.485904 -0.245232 1
372 211 1.288000 -0.431253 -0.258337 1
374 211 1.252006 -0.372283 -0.273581 1
376 211 1.226905 -0.307439 -0.283456 1
378 211 1.207291 -0.236724 -0.277367 1
380 211 1.195144 -0.158994 -0.257488 1
382 211 1.188031 -0.072123 -0.229433 1
384 211 1.183597 0.018687 -0.206054 1
386 211 1.174750 0.104530 -0.195128 1
388 211 1.159273 0.184432 -0.191767 1
390 211 1.138966 0.258413 -0.191188 1
392 211 1.116156 0.326776 -0.189757 1
394 211 1.092087 0.390839 -0.181539 1
396 211 1.068566 0.452671 -0.167355 1
398 211 1.045364 0.511696 -0.156352 1
400 211 1.021483 0.570340 -0.148168 1
402 211 0.999009 0.625527 -0.138164 1
404 211 0.978219 0.675890 -0.125176 1
406 211 0.957512 0.718307 -0.112670 1
408 211 0.950427 0.732063 -0.105444 1
410 211 0.000000 0.000000 0.000000 0
412 211 0.000000 0.000000 0.000000 0
414 211 0.000000 0.000000 0.000000 0
416 211 0.000000 0.000000 0.000000 0
418 211 0.000000 0.000000 0.000000 0
420 211 0.000000 0.000000 0.000000 0
422 211 0.000000 0.000000 0.000000 0
424 211 0.000000 0.000000 0.000000 0
426 211 0.000000 0.000000 0.000000 0
428 211 0.000000 0.000000 0.000000 0
430 211 0.000000 0.000000 0.000000 0
432 211 0.000000 0.000000 0.000000 0
434 211 0.000000 0.000000 0.000000 0
436 211 0.000000 0.000000 0.000000 0
438 211 0.000000 0.000000 0.000000 0
440 211 0.000000 0.000000 0.000000 0
442 211 0.000000 0.000000 0.000000 0
444 211 0.000000 0.000000 0.000000 0
446 211 0.000000 0.000000 0.000000 0
308 213 0.000000 0.000000 0.000000 0
310 213 0.000000 0.000000 0.000000 0
312 213 0.000000 0.000000 0.000000 0
314 213 0.000000 0.000000 0.000000 0
316 213 1.019055 0.566964 0.277613 1
318 213 1.037487 0.515848 0.343321 1
320 213 1.100973 0.416323 0.412870 1
322 213 1.177411 0.302190 0.459858 1
324 213 1.233981 0.193808 0.499679 1
326 213 1.267654 0.093108 0.538622 1
328 213 1.295673 -0.005937 0.556612 1
330 213 1.330285 -0.105691 0.547217 1
332 213 1.372766 -0.219467 0.520756 1
334 213 1.418699 -0.349496 0.467197 1
336 213 1.463850 -0.479874 0.394773 1
338 213 1.510933 -0.610516 0.319777 1
340 213 1.560898 -0.738128 0.268752 1
342 213 1.612443 -0.846117 0.238430 1
344 213 1.660752 -0.928550 0.218869 1
346 213 1.697761 -0.985038 0.197378 1
348 213 1.721952 -1.007808 0.168355 1
350 213 1.746776 -1.005885 0.130963 1
352 213 1.765986 -0.973260 0.088886 1