TITLE = "B00030"
VARIABLES = "X", "Y", "Vx", "Vy", "Vz", "flag"
ZONE T="B00030", I=70, J=78
308 191 0.000000 0.000000 0.000000 0
310 191 0.000000 0.000000 0.000000 0
312 191 0.000000 0.000000 0.000000 0
314 191 0.000000 0.000000 0.000000 0
316 191 0.000000 0.000000 0.000000 0
318 191 0.000000 0.000000 0.000000 0
320 191 0.000000 0.000000 0.000000 0
322 191 0.000000 0.000000 0.000000 0
324 191 0.000000 0.000000 0.000000 0
326 191 0.000000 0.000000 0.000000 0
328 191 0.000000 0.000000 0.000000 0
330 191 0.000000 0.000000 0.000000 0
332 191 0.000000 0.000000 0.000000 0
334 191 0.000000 0.000000 0.000000 0
336 191 0.000000 0.000000 0.000000 0
338 191 0.000000 0.000000 0.000000 0
340 191 0.000000 0.000000 0.000000 0
342 191 0.000000 0.000000 0.000000 0
344 191 0.000000 0.000000 0.000000 0
346 191 0.000000 0.000000 0.000000 0
348 191 0.000000 0.000000 0.000000 0
350 191 0.000000 0.000000 0.000000 0
352 191 0.000000 0.000000 0.000000 0
354 191 0.000000 0.000000 0.000000 0
356 191 0.000000 0.000000 0.000000 0
358 191 0.000000 0.000000 0.000000 0
360 191 0.000000 0.000000 0.000000 0
362 191 0.000000 0.000000 0.000000 0
364 191 0.000000 0.000000 0.000000 0
366 191 0.000000 0.000000 0.000000 0
368 191 0.000000 0.000000 0.000000 0
370 191 0.000000 0.000000 0.000000 0
372 191 0.000000 0.000000 0.000000 0
374 191 0.000000 0.000000 0.000000 0
376 191 0.000000 0.000000 0.000000 0
378 191 0.000000 0.000000 0.000000 0
380 191 0.000000 0.000000 0.000000 0
382 191 0.000000 0.000000 0.000000 0
384 191 0.000000 0.000000 0.000000 0
386 191 0.000000 0.000000 0.000000 0
388 191 0.000000 0.000000 0.000000 0
390 191 0.000000 0.000000 0.000000 0
392 191 0.000000 0.000000 0.000000 0
394 191 0.000000 0.000000 0.000000 0
396 191 0.000000 0.000000 0.000000 0
398 191 0.000000 0.000000 0.000000 0
400 191 0.000000 0.000000 0.000000 0
402 191 0.000000 0.000000 0.000000 0
404 191 0.000000 0.000000 0.000000 0
406 191 0.000000 0.000000 0.000000 0
408 191 0.000000 0.000000 0.000000 0
410 191 0.000000 0.000000 0.000000 0
412 191 0.000000 0.000000 0.000000 0
414 191 0.000000 0.000000 0.000000 0
416 191 0.000000 0.000000 0.000000 0
418 191 0.000000 0.000000 0.000000 0
420 191 0.000000 0.000000 0.000000 0
422 191 0.000000 0.000000 0.000000 0
424 191 0.000000 0.000000 0.000000 0
426 191 0.000000 0.000000 0.000000 0
428 191 0.000000 0.000000 0.000000 0
430 191 0.000000 0.000000 0.000000 0
432 191 0.000000 0.000000 0.000000 0
434 191 0.000000 0.000000 0.000000 0
436 191 0.000000 0.000000 0.000000 0
438 191 0.000000 0.000000 0.000000 0
440 191 0.000000 0.000000 0.000000 0
442 191 0.000000 0.000000 0.000000 0
444 191 0.000000 0.000000 0.000000 0
446 191 0.000000 0.000000 0.000000 0
308 193 0.000000 0.000000 0.000000 0
310 193 0.000000 0.000000 0.000000 0
312 193 0.000000 0.000000 0.000000 0
314 193 0.000000 0.000000 0.000000 0
316 193 0.000000 0.000000 0.000000 0
318 193 0.000000 0.000000 0.000000 0
320 193 0.000000 0.000000 0.000000 0
322 193 0.000000 0.000000 0.000000 0
324 193 0.000000 0.000000 0.000000 0
326 193 0.000000 0.000000 0.000000 0
328 193 0.000000 0.000000 0.000000 0
330 193 0.000000 0.000000 0.000000 0
332 193 0.000000 0.000000 0.000000 0
334 193 0.000000 0.000000 0.000000 0
336 193 0.000000 0.000000 0.000000 0
338 193 0.000000 0.000000 0.000000 0
340 193 0.000000 0.000000 0.000000 0
342 193 0.000000 0.000000 0.000000 0
344 193 0.000000 0.000000 0.000000 0
346 193 0.000000 0.000000 0.000000 0
348 193 0.000000 0.000000 0.000000 0
350 193 0.000000 0.000000 0.000000 0
352 193 0.000000 0.000000 0.000000 0
354 193 0.000000 0.000000 0.000000 0
356 193 0.000000 0.000000 0.000000 0
358 193 0.000000 0.000000 0.000000 0
360 193 0.000000 0.000000 0.000000 0
362 193 0.000000 0.000000 0.000000 0
364 193 0.000000 0.000000 0.000000 0
366 193 0.000000 0.000000 0.000000 0
368 193 0.000000 0.000000 0.000000 0
370 193 0.000000 0.000000 0.000000 0
372 193 0.000000 0.000000 0.000000 0
374 193 0.000000 0.000000 0.000000 0
376 193 0.000000 0.000000 0.000000 0
378 193 0.000000 0.000000 0.000000 0
380 193 0.000000 0.000000 0.000000 0
382 193 0.000000 0.000000 0.000000 0
384 193 0.000000 0.000000 0.000000 0
386 193 0.000000 0.000000 0.000000 0
388 193 0.000000 0.000000 0.000000 0
390 193 0.000000 0.000000 0.000000 0
392 193 0.000000 0.000000 0.000000 0
394 193 0.000000 0.000000 0.000000 0
396 193 0.000000 0.000000 0.000000 0
398 193 0.000000 0.000000 0.000000 0
400 193 0.000000 0.000000 0.000000 0
402 193 0.000000 0.000000 0.000000 0
404 193 0.000000 0.000000 0.000000 0
406 193 0.000000 0.000000 0.000000 0
408 193 0.000000 0.000000 0.000000 0
410 193 0.000000 0.000000 0.000000 0
412 193 0.000000 0.000000 0.000000 0
414 193 0.000000 0.000000 0.000000 0
416 193 0.000000 0.000000 0.000000 0
418 193 0.000000 0.000000 0.000000 0
420 193 0.000000 0.000000 0.000000 0
422 193 0.000000 0.000000 0.000000 0
424 193 0.000000 0.000000 0.000000 0
426 193 0.000000 0.000000 0.000000 0
428 193 0.000000 0.000000 0.000000 0
430 193 0.000000 0.000000 0.000000 0
432 193 0.000000 0.000000 0.000000 0
434 193 0.000000 0.000000 0.000000 0
436 193 0.000000 0.000000 0.000000 0
438 193 0.000000 0.000000 0.000000 0
440 193 0.000000 0.000000 0.000000 0
442 193 0.000000 0.000000 0.000000 0
444 193 0.000000 0.000000 0.000000 0
446 193 0.000000 0.000000 0.000000 0
308 195 0.000000 0.000000 0.000000 0
310 195 0.000000 0.000000 0.000000 0
312 195 0.000000 0.000000 0.000000 0
314 195 0.000000 0.000000 0.000000 0
316 195 0.000000 0.000000 0.000000 0
318 195 0.000000 0.000000 0.000000 0
320 195 0.000000 0.000000 0.000000 0
322 195 0.000000 0.000000 0.000000 0
324 195 0.000000 0.000000 0.000000 0
326 195 0.000000 0.000000 0.000000 0
328 195 0.000000 0.000000 0.000000 0
330 195 0.000000 0.000000 0.000000 0
332 195 0.000000 0.000000 0.000000 0
334 195 0.000000 0.000000 0.000000 0
336 195 0.000000 0.000000 0.000000 0
338 195 0.000000 0.000000 0.000000 0
340 195 0.000000 0.000000 0.000000 0
342 195 0.000000 0.000000 0.000000 0
344 195 0.000000 0.000000 0.000000 0
346 195 0.000000 0.000000 0.000000 0
348 195 0.000000 0.000000 0.000000 0
350 195 0.000000 0.000000 0.000000 0
352 195 0.000000 0.000000 0.000000 0
354 195 0.000000 0.000000 0.000000 0
356 195 0.000000 0.000000 0.000000 0
358 195 0.000000 0.000000 0.000000 0
360 195 0.000000 0.000000 0.000000 0
362 195 0.000000 0.000000 0.000000 0
364 195 0.000000 0.000000 0.000000 0
366 195 0.000000 0.000000 0.000000 0
368 195 0.000000 0.000000 0.000000 0
370 195 0.000000 0.000000 0.000000 0
372 195 0.000000 0.000000 0.000000 0
374 195 0.000000 0.000000 0.000000 0
376 195 0.000000 0.000000 0.000000 0
378 195 0.000000 0.000000 0.000000 0
380 195 0.000000 0.000000 0.000000 0
382 195 0.000000 0.000000 0.000000 0
384 195 0.000000 0.000000 0.000000 0
386 195 0.000000 0.000000 0.000000 0
388 195 0.000000 0.000000 0.000000 0
390 195 0.000000 0.000000 0.000000 0
392 195 0.000000 0.000000 0.000000 0
394 195 0.000000 0.000000 0.000000 0
396 195 0.000000 0.000000 0.000000 0
398 195 0.000000 0.000000 0.000000 0
400 195 0.000000 0.000000 0.000000 0
402 195 0.000000 0.000000 0.000000 0
404 195 0.000000 0.000000 0.000000 0
406 195 0.000000 0.000000 0.000000 0
408 195 0.000000 0.000000 0.000000 0
410 195 0.000000 0.000000 0.000000 0
412 195 0.000000 0.000000 0.000000 0
414 195 0.000000 0.000000 0.000000 0
416 195 0.000000 0.000000 0.000000 0
418 195 0.000000 0.000000 0.000000 0
420 195 0.000000 0.000000 0.000000 0
422 195 0.000000 0.000000 0.000000 0
424 195 0.000000 0.000000 0.000000 0
426 195 0.000000 0.000000 0.000000 0
428 195 0.000000 0.000000 0.000000 0
430 195 0.000000 0.000000 0.000000 0
432 195 0.000000 0.000000 0.000000 0
434 195 0.000000 0.000000 0.000000 0
436 195 0.000000 0.000000 0.000000 0
438 195 0.000000 0.000000 0.000000 0
440 195 0.000000 0.000000 0.000000 0
442 195 0.000000 0.000000 0.000000 0
444 195 0.000000 0.000000 0.000000 0
446 195 0.000000 0.000000 0.000000 0
308 197 0.000000 0.000000 0.000000 0
310 197 0.000000 0.000000 0.000000 0
312 197 0.000000 0.000000 0.000000 0
314 197 0.000000 0.000000 0.000000 0
316 197 0.000000 0.000000 0.000000 0
318 197 0.226507 0.351417 -0.037201 1
320 197 0.180524 0.364441 -0.048183 1
322 197 0.135362 0.413421 -0.050928 1
324 197 0.089571 0.456856 -0.062264 1
326 197 0.043671 0.479586 -0.068053 1
328 197 -0.007127 0.490424 -0.075522 1
330 197 -0.067322 0.494422 -0.089792 1
332 197 -0.128140 0.478467 -0.097058 1
334 197 -0.182670 0.445665 -0.084915 1
336 197 -0.233629 0.403652 -0.066276 1
338 197 -0.283752 0.353761 -0.037325 1
340 197 -0.322544 0.296800 0.000351 1
342 197 -0.349171 0.233837 0.020844 1
344 197 -0.364821 0.158318 0.013034 1
346 197 -0.372355 0.070322 -0.000972 1
348 197 -0.369950 -0.027610 -0.011192 1
350 197 -0.362244 -0.125176 -0.021352 1
352 197 -0.338380 -0.227379 -0.023742 1
354 197 -0.297183 -0.332853 -0.015581 1
356 197 -0.245620 -0.430038 -0.002480 1
358 197 -0.185084 -0.516569 0.004792 1
360 197 -0.127753 -0.586322 -0.006090 1
362 197 -0.076071 -0.629723 -0.053755 1
364 197 -0.023343 -0.670020 -0.115512 1
366 197 0.039491 -0.713634 -0.155044 1
368 197 0.117483 -0.746862 -0.166606 1
370 197 0.202337 -0.771756 -0.170705 1
372 197 0.273550 -0.773967 -0.187269 1
374 197 0.332140 -0.755075 -0.218770 1
376 197 0.385963 -0.720324 -0.256225 1
378 197 0.437444 -0.676808 -0.282233 1
380 197 0.490613 -0.634508 -0.280046 1
382 197 0.544814 -0.593294 -0.251473 1
384 197 0.599869 -0.551674 -0.213327 1
386 197 0.650125 -0.506085 -0.198258 1
388 197 0.697057 -0.453127 -0.207337 1
390 197 0.739749 -0.392874 -0.229549 1
392 197 0.773556 -0.328656 -0.239351 1
394 197 0.797546 -0.266207 -0.233494 1
396 197 0.815934 -0.208868 -0.223604 1
398 197 0.827262 -0.150358 -0.213701 1
400 197 0.828811 -0.078904 -0.190706 1
402 197 0.821852 -0.009525 -0.147684 1
404 197 0.877628 0.006185 -0.161070 1
406 197 0.000000 0.000000 0.000000 0
408 197 0.000000 0.000000 0.000000 0
410 197 0.000000 0.000000 0.000000 0
412 197 0.000000 0.000000 0.000000 0
414 197 0.000000 0.000000 0.000000 0
416 197 0.000000 0.000000 0.000000 0
418 197 0.000000 0.000000 0.000000 0
420 197 0.000000 0.000000 0.000000 0
422 197 0.000000 0.000000 0.000000 0
424 197 0.000000 0.000000 0.000000 0
426 197 0.000000 0.000000 0.000000 0
428 197 0.000000 0.000000 0.000000 0
430 197 0.000000 0.000000 0.000000 0
432 197 0.000000 0.000000 0.000000 0
434 197 0.000000 0.000000 0.000000 0
436 197 0.000000 0.000000 0.000000 0
438 197 0.000000 0.000000 0.000000 0
440 197 0.000000 0.000000 0.000000 0
442 197 0.000000 0.000000 0.000000 0
444 197 0.000000 0.000000 0.000000 0
446 197 0.000000 0.000000 0.000000 0
308 199 0.000000 0.000000 0.000000 0
310 199 0.000000 0.000000 0.000000 0
312 199 0.000000 0.000000 0.000000 0
314 199 0.000000 0.000000 0.000000 0
316 199 0.316587 0.332547 -0.026622 1
318 199 0.277321 0.363822 -0.023323 1
320 199 0.236177 0.422128 -0.015633 1
322 199 0.189598 0.481004 -0.014322 1
324 199 0.139788 0.536088 -0.018592 1
326 199 0.089164 0.568198 -0.011885 1
328 199 0.034452 0.586827 0.002754 1
330 199 -0.026521 0.593309 0.012754 1
332 199 -0.086664 0.575795 0.023349 1
334 199 -0.135744 0.535242 0.042961 1
336 199 -0.176372 0.481013 0.060985 1
338 199 -0.206532 0.410195 0.086255 1
340 199 -0.224091 0.332919 0.121310 1
342 199 -0.227862 0.249369 0.142457 1
344 199 -0.225462 0.157123 0.145433 1
346 199 -0.218586 0.054623 0.145418 1
348 199 -0.203784 -0.057157 0.146346 1
350 199 -0.187992 -0.165038 0.137494 1
352 199 -0.157721 -0.277162 0.126688 1
354 199 -0.111984 -0.390533 0.121658 1
356 199 -0.054812 -0.497185 0.120056 1
358 199 0.013465 -0.596079 0.115257 1
360 199 0.080020 -0.679443 0.094108 1
362 199 0.141166 -0.735844 0.035156 1
364 199 0.199020 -0.782217 -0.036066 1
366 199 0.262625 -0.826081 -0.082908 1
368 199 0.336631 -0.855259 -0.097499 1
370 199 0.413983 -0.874319 -0.103614 1
372 199 0.474369 -0.870468 -0.125084 1
374 199 0.520476 -0.847239 -0.165113 1
376 199 0.557036 -0.809897 -0.219800 1
378 199 0.591778 -0.764147 -0.266784 1
380 199 0.626110 -0.718289 -0.292906 1
382 199 0.664073 -0.672296 -0.290294 1
384 199 0.704180 -0.624666 -0.272810 1
386 199 0.742291 -0.572038 -0.261674 1
388 199 0.781936 -0.512795 -0.260243 1
390 199 0.820426 -0.445992 -0.263575 1
392 199 0.853754 -0.376379 -0.261540 1
394 199 0.880575 -0.307073 -0.249967 1
396 199 0.904070 -0.242432 -0.242397 1
398 199 0.921646 -0.177603 -0.240970 1
400 199 0.929245 -0.102824 -0.232683 1
402 199 0.927679 -0.031452 -0.204527 1
404 199 0.919636 0.028888 -0.159880 1
406 199 0.968598 0.047076 -0.163484 1
408 199 0.000000 0.000000 0.000000 0
410 199 0.000000 0.000000 0.000000 0
412 199 0.000000 0.000000 0.000000 0
414 199 0.000000 0.000000 0.000000 0
416 199 0.000000 0.000000 0.000000 0
418 199 0.000000 0.000000 0.000000 0
420 199 0.000000 0.000000 0.000000 0
422 199 0.000000 0.000000 0.000000 0
424 199 0.000000 0.000000 0.000000 0
426 199 0.000000 0.000000 0.000000 0
428 199 0.000000 0.000000 0.000000 0
430 199 0.000000 0.000000 0.000000 0
432 199 0.000000 0.000000 0.000000 0
434 199 0.000000 0.000000 0.000000 0
436 199 0.000000 0.000000 0.000000 0
438 199 0.000000 0.000000 0.000000 0
440 199 0.000000 0.000000 0.000000 0
442 199 0.000000 0.000000 0.000000 0
444 199 0.000000 0.000000 0.000000 0
446 199 0.000000 0.000000 0.000000 0
308 201 0.000000 0.000000 0.000000 0
310 201 0.000000 0.000000 0.000000 0
312 201 0.000000 0.000000 0.000000 0
314 201 0.000000 0.000000 0.000000 0
316 201 0.359131 0.357912 -0.026847 1
318 201 0.338395 0.407416 -0.014361 1
320 201 0.298809 0.476511 -0.002455 1
322 201 0.252063 0.545358 0.000721 1
324 201 0.203158 0.606899 -0.001029 1
326 201 0.156267 0.643915 0.014370 1
328 201 0.107282 0.663917 0.043163 1
330 201 0.055797 0.667476 0.073717 1
332 201 0.003728 0.645108 0.104436 1
334 201 -0.035699 0.596550 0.136853 1
336 201 -0.061850 0.530088 0.159914 1
338 201 -0.074283 0.445081 0.186327 1
340 201 -0.068310 0.349855 0.228992 1
342 201 -0.052819 0.251059 0.266240 1
344 201 -0.035829 0.145018 0.298575 1
346 201 -0.018046 0.030402 0.325454 1
348 201 0.003636 -0.090723 0.342073 1
350 201 0.023140 -0.207531 0.336718 1
352 201 0.052161 -0.325673 0.317079 1
354 201 0.093360 -0.444499 0.292875 1
356 201 0.147945 -0.556485 0.273196 1
358 201 0.217301 -0.664625 0.254929 1
360 201 0.290352 -0.760923 0.227574 1
362 201 0.359565 -0.829024 0.169905 1
364 201 0.425734 -0.882501 0.098875 1
366 201 0.492861 -0.925602 0.048609 1
368 201 0.565948 -0.948562 0.026407 1
370 201 0.639118 -0.960910 0.012804 1
372 201 0.694245 -0.950645 -0.016380 1
374 201 0.732785 -0.923521 -0.065901 1
376 201 0.759166 -0.885585 -0.134902 1
378 201 0.775489 -0.839158 -0.207477 1
380 201 0.790484 -0.790653 -0.261699 1
382 201 0.805407 -0.739092 -0.292963 1
384 201 0.825611 -0.685120 -0.301128 1
386 201 0.846165 -0.627025 -0.300226 1
388 201 0.872433 -0.563139 -0.291639 1
390 201 0.902392 -0.493439 -0.280979 1
392 201 0.929992 -0.420444 -0.265741 1
394 201 0.955009 -0.346950 -0.249143 1
396 201 0.978726 -0.275603 -0.241949 1
398 201 0.998105 -0.204589 -0.244828 1
400 201 1.008259 -0.125500 -0.243493 1
402 201 1.011454 -0.050024 -0.225567 1
404 201 1.009750 0.014904 -0.191935 1
406 201 1.007002 0.072675 -0.159948 1
408 201 1.048462 0.088873 -0.161883 1
410 201 0.000000 0.000000 0.000000 0
412 201 0.000000 0.000000 0.000000 0
414 201 0.000000 0.000000 0.000000 0
416 201 0.000000 0.000000 0.000000 0
418 201 0.000000 0.000000 0.000000 0
420 201 0.000000 0.000000 0.000000 0
422 201 0.000000 0.000000 0.000000 0
424 201 0.000000 0.000000 0.000000 0
426 201 0.000000 0.000000 0.000000 0
428 201 0.000000 0.000000 0.000000 0
430 201 0.000000 0.000000 0.000000 0
432 201 0.000000 0.000000 0.000000 0
434 201 0.000000 0.000000 0.000000 0
436 201 0.000000 0.000000 0.000000 0
438 201 0.000000 0.000000 0.000000 0
440 201 0.000000 0.000000 0.000000 0
442 201 0.000000 0.000000 0.000000 0
444 201 0.000000 0.000000 0.000000 0
446 201 0.000000 0.000000 0.000000 0
308 203 0.000000 0.000000 0.000000 0
310 203 0.000000 0.000000 0.000000 0
312 203 0.000000 0.000000 0.000000 0
314 203 0.000000 0.000000 0.000000 0
316 203 0.420175 0.385599 -0.030969 1
318 203 0.404728 0.441225 -0.017359 1
320 203 0.368404 0.519768 -0.004347 1
322 203 0.323884 0.596388 0.001013 1
324 203 0.282028 0.662628 0.006546 1
326 203 0.245851 0.700514 0.029941 1
328 203 0.213466 0.716893 0.069328 1
330 203 0.178180 0.712887 0.111171 1
332 203 0.142702 0.679773 0.156244 1
334 203 0.116941 0.620604 0.199691 1
336 203 0.103230 0.544876 0.227803 1
338 203 0.105713 0.450585 0.256283 1
340 203 0.125983 0.347377 0.308574 1
342 203 0.156953 0.238536 0.372000 1
344 203 0.181915 0.125437 0.431779 1
346 203 0.204094 0.006005 0.480037 1
348 203 0.225955 -0.116318 0.501364 1
350 203 0.242510 -0.234459 0.493173 1
352 203 0.263304 -0.355641 0.463910 1
354 203 0.293997 -0.478069 0.428565 1
356 203 0.336680 -0.595171 0.393901 1
358 203 0.399408 -0.710941 0.366127 1
360 203 0.471186 -0.818717 0.337265 1
362 203 0.544239 -0.898646 0.290855 1
364 203 0.617867 -0.959357 0.232224 1
366 203 0.694253 -1.002501 0.186564 1
368 203 0.772622 -1.019888 0.158936 1
370 203 0.848524 -1.023805 0.134237 1
372 203 0.904625 -1.005621 0.097093 1
374 203 0.942785 -0.971594 0.041653 1
376 203 0.965228 -0.929284 -0.035563 1
378 203 0.971566 -0.879982 -0.122080 1
380 203 0.967645 -0.828248 -0.201071 1
382 203 0.963443 -0.774008 -0.257461 1
384 203 0.961117 -0.717330 -0.293918 1
386 203 0.962219 -0.658425 -0.309699 1
388 203 0.970764 -0.594520 -0.305853 1
390 203 0.986035 -0.525290 -0.289531 1
392 203 1.004248 -0.452293 -0.267883 1
394 203 1.023281 -0.376697 -0.247477 1
396 203 1.045145 -0.301339 -0.238969 1
398 203 1.064331 -0.225257 -0.240196 1
400 203 1.075193 -0.142662 -0.238660 1
402 203 1.080944 -0.063490 -0.224494 1
404 203 1.083894 0.005092 -0.199244 1
406 203 1.084982 0.063776 -0.175531 1
408 203 1.084491 0.085309 -0.168506 1
410 203 0.000000 0.000000 0.000000 0
412 203 0.000000 0.000000 0.000000 0
414 203 0.000000 0.000000 0.000000 0
416 203 0.000000 0.000000 0.000000 0
418 203 0.000000 0.000000 0.000000 0
420 203 0.000000 0.000000 0.000000 0
422 203 0.000000 0.000000 0.000000 0
424 203 0.000000 0.000000 0.000000 0
426 203 0.000000 0.000000 0.000000 0
428 203 0.000000 0.000000 0.000000 0
430 203 0.000000 0.000000 0.000000 0
432 203 0.000000 0.000000 0.000000 0
434 203 0.000000 0.000000 0.000000 0
436 203 0.000000 0.000000 0.000000 0
438 203 0.000000 0.000000 0.000000 0
440 203 0.000000 0.000000 0.000000 0
442 203 0.000000 0.000000 0.000000 0
444 203 0.000000 0.000000 0.000000 0
446 203 0.000000 0.000000 0.000000 0
308 205 0.000000 0.000000 0.000000 0
310 205 0.000000 0.000000 0.000000 0
312 205 0.000000 0.000000 0.000000 0
314 205 0.000000 0.000000 0.000000 0
316 205 0.488451 0.406439 -0.027471 1
318 205 0.477816 0.466702 -0.016141 1
320 205 0.449223 0.552958 -0.005490 1
322 205 0.413506 0.635098 0.004938 1
324 205 0.385775 0.703637 0.022909 1
326 205 0.367958 0.739720 0.057709 1
328 205 0.353206 0.750257 0.104733 1
330 205 0.340467 0.733780 0.158525 1
332 205 0.324580 0.687505 0.216965 1
334 205 0.317370 0.615655 0.274433 1
336 205 0.316583 0.532406 0.308313 1
338 205 0.328036 0.434941 0.336742 1
340 205 0.355909 0.330453 0.391893 1
342 205 0.392321 0.220658 0.464252 1
344 205 0.420184 0.109299 0.528364 1
346 205 0.442197 -0.006012 0.570809 1
348 205 0.461116 -0.121907 0.573795 1
350 205 0.473060 -0.237246 0.551750 1
352 205 0.486430 -0.360224 0.516622 1
354 205 0.504374 -0.488451 0.479331 1
356 205 0.533825 -0.612164 0.439534 1
358 205 0.583582 -0.738411 0.402608 1
360 205 0.648401 -0.857688 0.373048 1
362 205 0.718963 -0.949956 0.336671 1
364 205 0.796856 -1.019370 0.292323 1
366 205 0.881775 -1.064636 0.258273 1
368 205 0.969426 -1.076688 0.234297 1
370 205 1.051245 -1.072662 0.204968 1
372 205 1.111180 -1.043076 0.163169 1
374 205 1.151130 -0.998764 0.107272 1
376 205 1.173434 -0.946842 0.034845 1
378 205 1.175702 -0.889898 -0.046628 1
380 205 1.163807 -0.833501 -0.124706 1
382 205 1.145870 -0.777131 -0.189862 1
384 205 1.127885 -0.720852 -0.243334 1
386 205 1.108234 -0.664702 -0.282812 1
388 205 1.095953 -0.604496 -0.296774 1
390 205 1.091039 -0.539328 -0.290840 1
392 205 1.093229 -0.469672 -0.273298 1
394 205 1.102932 -0.395203 -0.254598 1
396 205 1.119344 -0.318285 -0.244321 1
398 205 1.136405 -0.240075 -0.241342 1
400 205 1.144903 -0.156212 -0.237633 1
402 205 1.149375 -0.075757 -0.227255 1
404 205 1.151875 -0.006118 -0.209643 1
406 205 1.152664 0.052427 -0.192131 1
408 205 1.152433 0.073675 -0.187129 1
410 205 0.000000 0.000000 0.000000 0
412 205 0.000000 0.000000 0.000000 0
414 205 0.000000 0.000000 0.000000 0
416 205 0.000000 0.000000 0.000000 0
418 205 0.000000 0.000000 0.000000 0
420 205 0.000000 0.000000 0.000000 0
422 205 0.000000 0.000000 0.000000 0
424 205 0.000000 0.000000 0.000000 0
426 205 0.000000 0.000000 0.000000 0
428 205 0.000000 0.000000 0.000000 0
430 205 0.000000 0.000000 0.000000 0
432 205 0.000000 0.000000 0.000000 0
434 205 0.000000 0.000000 0.000000 0
436 205 0.000000 0.000000 0.000000 0
438 205 0.000000 0.000000 0.000000 0
440 205 0.000000 0.000000 0.000000 0
442 205 0.000000 0.000000 0.000000 0
444 205 0.000000 0.000000 0.000000 0
446 205 0.000000 0.000000 0.000000 0
308 207 0.000000 0.000000 0.000000 0
310 207 0.000000 0.000000 0.000000 0
312 207 0.000000 0.000000 0.000000 0
314 207 0.000000 0.000000 0.000000 0
316 207 0.577305 0.421776 -0.015235 1
318 207 0.567376 0.487796 -0.006888 1
320 207 0.547613 0.580091 -0.001222 1
322 207 0.525279 0.666590 0.012102 1
324 207 0.514289 0.736198 0.042454 1
326 207 0.514074 0.769910 0.088451 1
328 207 0.517532 0.773103 0.144866 1
330 207 0.521466 0.746129 0.210182 1
332 207 0.526819 0.684760 0.288049 1
334 207 0.536195 0.601923 0.363802 1
336 207 0.548810 0.511818 0.411182 1
338 207 0.566272 0.414070 0.440689 1
340 207 0.594188 0.313556 0.486908 1
342 207 0.628377 0.209978 0.544982 1
344 207 0.655264 0.105404 0.591351 1
346 207 0.677398 -0.002058 0.609106 1
348 207 0.696346 -0.113181 0.589138 1
350 207 0.707745 -0.227416 0.550228 1
352 207 0.717675 -0.353960 0.511250 1
354 207 0.728499 -0.488279 0.474468 1
356 207 0.746166 -0.620745 0.427111 1
358 207 0.786502 -0.756726 0.379135 1
360 207 0.843948 -0.889703 0.343536 1
362 207 0.910541 -0.994261 0.305993 1
364 207 0.986927 -1.074099 0.264768 1
366 207 1.074442 -1.123846 0.242010 1
368 207 1.165508 -1.133498 0.232546 1
370 207 1.251320 -1.121300 0.212406 1
372 207 1.312254 -1.081838 0.175695 1
374 207 1.351394 -1.025248 0.126726 1
376 207 1.371961 -0.962632 0.066263 1
378 207 1.373239 -0.895480 0.002136 1
380 207 1.360719 -0.830757 -0.057667 1
382 207 1.341043 -0.768943 -0.112341 1
384 207 1.314803 -0.709754 -0.170292 1
386 207 1.282007 -0.654261 -0.226834 1
388 207 1.249259 -0.598177 -0.265526 1
390 207 1.223218 -0.538804 -0.278441 1
392 207 1.205937 -0.475464 -0.273171 1
394 207 1.200425 -0.405563 -0.261220 1
396 207 1.207453 -0.330094 -0.252022 1
398 207 1.217216 -0.251866 -0.245768 1
400 207 1.220456 -0.168337 -0.241710 1
402 207 1.219978 -0.088187 -0.236894 1
404 207 1.218705 -0.018255 -0.228147 1
406 207 1.216710 0.040976 -0.216789 1
408 207 1.217065 0.062912 -0.211515 1
410 207 0.000000 0.000000 0.000000 0
412 207 0.000000 0.000000 0.000000 0
414 207 0.000000 0.000000 0.000000 0
416 207 0.000000 0.000000 0.000000 0
418 207 0.000000 0.000000 0.000000 0
420 207 0.000000 0.000000 0.000000 0
422 207 0.000000 0.000000 0.000000 0
424 207 0.000000 0.000000 0.000000 0
426 207 0.000000 0.000000 0.000000 0
428 207 0.000000 0.000000 0.000000 0
430 207 0.000000 0.000000 0.000000 0
432 207 0.000000 0.000000 0.000000 0
434 207 0.000000 0.000000 0.000000 0
436 207 0.000000 0.000000 0.000000 0
438 207 0.000000 0.000000 0.000000 0
440 207 0.000000 0.000000 0.000000 0
442 207 0.000000 0.000000 0.000000 0
444 207 0.000000 0.000000 0.000000 0
446 207 0.000000 0.000000 0.000000 0
308 209 0.000000 0.000000 0.000000 0
310 209 0.000000 0.000000 0.000000 0
312 209 0.000000 0.000000 0.000000 0
314 209 0.000000 0.000000 0.000000 0
316 209 0.707368 0.423856 -0.001424 1
318 209 0.701029 0.497266 0.001248 1
320 209 0.695697 0.596093 -0.000573 1
322 209 0.687696 0.683788 0.012891 1
324 209 0.692863 0.752012 0.050539 1
326 209 0.707933 0.782312 0.103218 1
328 209 0.725191 0.779795 0.165547 1
330 209 0.743467 0.744658 0.240639 1
332 209 0.761887 0.675232 0.331934 1
334 209 0.784857 0.585345 0.426713 1
336 209 0.805357 0.493396 0.486141 1
338 209 0.824383 0.399906 0.514220 1
340 209 0.845696 0.307794 0.539373 1
342 209 0.871734 0.213147 0.567483 1
344 209 0.897061 0.115905 0.584776 1
346 209 0.923163 0.011850 0.583338 1
348 209 0.949217 -0.100578 0.549033 1
350 209 0.965251 -0.218813 0.504391 1
352 209 0.976656 -0.351123 0.466805 1
354 209 0.985499 -0.491607 0.427461 1
356 209 0.998684 -0.630585 0.369103 1
358 209 1.033293 -0.775320 0.311517 1
360 209 1.086514 -0.917631 0.271908 1
362 209 1.146053 -1.032891 0.226450 1
364 209 1.214016 -1.120757 0.180400 1
366 209 1.292618 -1.175012 0.166221 1
368 209 1.376273 -1.183463 0.176704 1
370 209 1.457192 -1.166513 0.175427 1
372 209 1.511869 -1.118641 0.156124 1
374 209 1.544783 -1.053330 0.120338 1
376 209 1.558834 -0.979879 0.075758 1
378 209 1.558499 -0.901990 0.028830 1
380 209 1.548603 -0.826324 -0.011078 1
382 209 1.533164 -0.754168 -0.048217 1
384 209 1.508191 -0.687094 -0.098160 1
386 209 1.470203 -0.626994 -0.160082 1
388 209 1.426887 -0.572183 -0.213067 1
390 209 1.384155 -0.518761 -0.244285 1
392 209 1.348742 -0.463659 -0.253189 1
394 209 1.325288 -0.401468 -0.251393 1
396 209 1.315988 -0.331230 -0.247428 1
398 209 1.314000 -0.256101 -0.242725 1
400 209 1.306589 -0.175715 -0.242451 1
402 209 1.299431 -0.097219 -0.244183 1
404 209 1.292356 -0.027228 -0.244633 1
406 209 1.286872 0.034222 -0.239030 1
408 209 1.285966 0.057041 -0.234302 1
410 209 0.000000 0.000000 0.000000 0
412 209 0.000000 0.000000 0.000000 0
414 209 0.000000 0.000000 0.000000 0
416 209 0.000000 0.000000 0.000000 0
418 209 0.000000 0.000000 0.000000 0
420 209 0.000000 0.000000 0.000000 0
422 209 0.000000 0.000000 0.000000 0
424 209 0.000000 0.000000 0.000000 0
426 209 0.000000 0.000000 0.000000 0
428 209 0.000000 0.000000 0.000000 0
430 209 0.000000 0.000000 0.000000 0
432 209 0.000000 0.000000 0.000000 0
434 209 0.000000 0.000000 0.000000 0
436 209 0.000000 0.000000 0.000000 0
438 209 0.000000 0.000000 0.000000 0
440 209 0.000000 0.000000 0.000000 0
442 209 0.000000 0.000000 0.000000 0
444 209 0.000000 0.000000 0.000000 0
446 209 0.000000 0.000000 0.000000 0
308 211 0.000000 0.000000 0.000000 0
310 211 0.000000 0.000000 0.000000 0
312 211 0.000000 0.000000 0.000000 0
314 211 0.000000 0.000000 0.000000 0
316 211 0.851281 0.410408 0.015383 1
318 211 0.849991 0.494142 0.011132 1
320 211 0.861235 0.600108 0.003735 1
322 211 0.874725 0.688337 0.015157 1
324 211 0.893656 0.753896 0.055486 1
326 211 0.923038 0.781034 0.111704 1
328 211 0.953289 0.775234 0.176357 1
330 211 0.983110 0.737882 0.254001 1
332 211 1.013644 0.666270 0.351646 1
334 211 1.045539 0.576086 0.454429 1
336 211 1.072704 0.485665 0.521608 1
338 211 1.092164 0.396596 0.546717 1
340 211 1.107701 0.309484 0.555502 1
342 211 1.125828 0.219016 0.557916 1
344 211 1.150294 0.123479 0.554917 1
346 211 1.183583 0.019417 0.539764 1
348 211 1.219857 -0.095934 0.500884 1
350 211 1.246569 -0.219078 0.455690 1
352 211 1.263747 -0.355868 0.419414 1
354 211 1.276987 -0.500716 0.373565 1
356 211 1.292036 -0.644335 0.303284 1
358 211 1.325312 -0.793763 0.240289 1
360 211 1.373803 -0.942957 0.198869 1
362 211 1.424643 -1.064450 0.150433 1
364 211 1.478426 -1.158492 0.104606 1
366 211 1.542717 -1.215752 0.097384 1
368 211 1.611004 -1.223748 0.119707 1
370 211 1.678520 -1.204015 0.134749 1
372 211 1.721385 -1.152250 0.130576 1
374 211 1.742110 -1.080428 0.111158 1
376 211 1.747081 -0.999430 0.078511 1
378 211 1.740874 -0.911057 0.044531 1
380 211 1.730097 -0.825127 0.017430 1
382 211 1.716055 -0.742713 -0.007289 1
384 211 1.693999 -0.664695 -0.045700 1
386 211 1.658003 -0.596274 -0.100912 1
388 211 1.612901 -0.537167 -0.155020 1
390 211 1.563660 -0.485355 -0.193868 1
392 211 1.514469 -0.436973 -0.215040 1
394 211 1.472781 -0.383447 -0.225203 1
396 211 1.443563 -0.321300 -0.231472 1
398 211 1.423300 -0.253122 -0.234000 1
400 211 1.403165 -0.177950 -0.239067 1
402 211 1.385145 -0.103062 -0.247162 1
404 211 1.371488 -0.033212 -0.253806 1
406 211 1.361607 0.031290 -0.253142 1
408 211 1.359916 0.056094 -0.249154 1
410 211 0.000000 0.000000 0.000000 0
412 211 0.000000 0.000000 0.000000 0
414 211 0.000000 0.000000 0.000000 0
416 211 0.000000 0.000000 0.000000 0
418 211 0.000000 0.000000 0.000000 0
420 211 0.000000 0.000000 0.000000 0
422 211 0.000000 0.000000 0.000000 0
424 211 0.000000 0.000000 0.000000 0
426 211 0.000000 0.000000 0.000000 0
428 211 0.000000 0.000000 0.000000 0
430 211 0.000000 0.000000 0.000000 0
432 211 0.000000 0.000000 0.000000 0
434 211 0.000000 0.000000 0.000000 0
436 211 0.000000 0.000000 0.000000 0
438 211 0.000000 0.000000 0.000000 0
440 211 0.000000 0.000000 0.000000 0
442 211 0.000000 0.000000 0.000000 0
444 211 0.000000 0.000000 0.000000 0
446 211 0.000000 0.000000 0.000000 0
308 213 0.000000 0.000000 0.000000 0
310 213 0.000000 0.000000 0.000000 0
312 213 0.000000 0.000000 0.000000 0
314 213 0.000000 0.000000 0.000000 0
316 213 1.009485 0.375443 0.028795 1
318 213 1.010900 0.470940 0.017660 1
320 213 1.046801 0.586494 0.006594 1
322 213 1.084161 0.676096 0.016756 1
324 213 1.119637 0.738613 0.056286 1
326 213 1.159285 0.763777 0.113052 1
328 213 1.199775 0.757483 0.177927 1
330 213 1.237982 0.722597 0.253870 1
332 213 1.276724 0.655633 0.348781 1
334 213 1.315962 0.571436 0.448439 1
336 213 1.346799 0.484848 0.513819 1
338 213 1.366787 0.397194 0.538445 1
340 213 1.380087 0.308353 0.545068 1
342 213 1.394419 0.214833 0.539185 1
344 213 1.417868 0.116961 0.525247 1
346 213 1.454640 0.011258 0.502558 1
348 213 1.500161 -0.105867 0.462095 1
350 213 1.537031 -0.230547 0.418493 1
352 213 1.564102 -0.368737 0.379367 1
354 213 1.585343 -0.515261 0.322793 1
356 213 1.607470 -0.661288 0.244135 1
358 213 1.641175 -0.812940 0.182488 1