TITLE = "B00016"
VARIABLES = "X", "Y", "Vx", "Vy", "Vz", "flag"
ZONE T="B00016", I=70, J=78
308 191 0.000000 0.000000 0.000000 0
310 191 0.000000 0.000000 0.000000 0
312 191 0.000000 0.000000 0.000000 0
314 191 0.000000 0.000000 0.000000 0
316 191 0.000000 0.000000 0.000000 0
318 191 0.000000 0.000000 0.000000 0
320 191 0.000000 0.000000 0.000000 0
322 191 0.000000 0.000000 0.000000 0
324 191 0.000000 0.000000 0.000000 0
326 191 0.000000 0.000000 0.000000 0
328 191 0.000000 0.000000 0.000000 0
330 191 0.000000 0.000000 0.000000 0
332 191 0.000000 0.000000 0.000000 0
334 191 0.000000 0.000000 0.000000 0
336 191 0.000000 0.000000 0.000000 0
338 191 0.000000 0.000000 0.000000 0
340 191 0.000000 0.000000 0.000000 0
342 191 0.000000 0.000000 0.000000 0
344 191 0.000000 0.000000 0.000000 0
346 191 0.000000 0.000000 0.000000 0
348 191 0.000000 0.000000 0.000000 0
350 191 0.000000 0.000000 0.000000 0
352 191 0.000000 0.000000 0.000000 0
354 191 0.000000 0.000000 0.000000 0
356 191 0.000000 0.000000 0.000000 0
358 191 0.000000 0.000000 0.000000 0
360 191 0.000000 0.000000 0.000000 0
362 191 0.000000 0.000000 0.000000 0
364 191 0.000000 0.000000 0.000000 0
366 191 0.000000 0.000000 0.000000 0
368 191 0.000000 0.000000 0.000000 0
370 191 0.000000 0.000000 0.000000 0
372 191 0.000000 0.000000 0.000000 0
374 191 0.000000 0.000000 0.000000 0
376 191 0.000000 0.000000 0.000000 0
378 191 0.000000 0.000000 0.000000 0
380 191 0.000000 0.000000 0.000000 0
382 191 0.000000 0.000000 0.000000 0
384 191 0.000000 0.000000 0.000000 0
386 191 0.000000 0.000000 0.000000 0
388 191 0.000000 0.000000 0.000000 0
390 191 0.000000 0.000000 0.000000 0
392 191 0.000000 0.000000 0.000000 0
394 191 0.000000 0.000000 0.000000 0
396 191 0.000000 0.000000 0.000000 0
398 191 0.000000 0.000000 0.000000 0
400 191 0.000000 0.000000 0.000000 0
402 191 0.000000 0.000000 0.000000 0
404 191 0.000000 0.000000 0.000000 0
406 191 0.000000 0.000000 0.000000 0
408 191 0.000000 0.000000 0.000000 0
410 191 0.000000 0.000000 0.000000 0
412 191 0.000000 0.000000 0.000000 0
414 191 0.000000 0.000000 0.000000 0
416 191 0.000000 0.000000 0.000000 0
418 191 0.000000 0.000000 0.000000 0
420 191 0.000000 0.000000 0.000000 0
422 191 0.000000 0.000000 0.000000 0
424 191 0.000000 0.000000 0.000000 0
426 191 0.000000 0.000000 0.000000 0
428 191 0.000000 0.000000 0.000000 0
430 191 0.000000 0.000000 0.000000 0
432 191 0.000000 0.000000 0.000000 0
434 191 0.000000 0.000000 0.000000 0
436 191 0.000000 0.000000 0.000000 0
438 191 0.000000 0.000000 0.000000 0
440 191 0.000000 0.000000 0.000000 0
442 191 0.000000 0.000000 0.000000 0
444 191 0.000000 0.000000 0.000000 0
446 191 0.000000 0.000000 0.000000 0
308 193 0.000000 0.000000 0.000000 0
310 193 0.000000 0.000000 0.000000 0
312 193 0.000000 0.000000 0.000000 0
314 193 0.000000 0.000000 0.000000 0
316 193 0.000000 0.000000 0.000000 0
318 193 0.000000 0.000000 0.000000 0
320 193 0.000000 0.000000 0.000000 0
322 193 0.000000 0.000000 0.000000 0
324 193 0.000000 0.000000 0.000000 0
326 193 0.000000 0.000000 0.000000 0
328 193 0.000000 0.000000 0.000000 0
330 193 0.000000 0.000000 0.000000 0
332 193 0.000000 0.000000 0.000000 0
334 193 0.000000 0.000000 0.000000 0
336 193 0.000000 0.000000 0.000000 0
338 193 0.000000 0.000000 0.000000 0
340 193 0.000000 0.000000 0.000000 0
342 193 0.000000 0.000000 0.000000 0
344 193 0.000000 0.000000 0.000000 0
346 193 0.000000 0.000000 0.000000 0
348 193 0.000000 0.000000 0.000000 0
350 193 0.000000 0.000000 0.000000 0
352 193 0.000000 0.000000 0.000000 0
354 193 0.000000 0.000000 0.000000 0
356 193 0.000000 0.000000 0.000000 0
358 193 0.000000 0.000000 0.000000 0
360 193 0.000000 0.000000 0.000000 0
362 193 0.000000 0.000000 0.000000 0
364 193 0.000000 0.000000 0.000000 0
366 193 0.000000 0.000000 0.000000 0
368 193 0.000000 0.000000 0.000000 0
370 193 0.000000 0.000000 0.000000 0
372 193 0.000000 0.000000 0.000000 0
374 193 0.000000 0.000000 0.000000 0
376 193 0.000000 0.000000 0.000000 0
378 193 0.000000 0.000000 0.000000 0
380 193 0.000000 0.000000 0.000000 0
382 193 0.000000 0.000000 0.000000 0
384 193 0.000000 0.000000 0.000000 0
386 193 0.000000 0.000000 0.000000 0
388 193 0.000000 0.000000 0.000000 0
390 193 0.000000 0.000000 0.000000 0
392 193 0.000000 0.000000 0.000000 0
394 193 0.000000 0.000000 0.000000 0
396 193 0.000000 0.000000 0.000000 0
398 193 0.000000 0.000000 0.000000 0
400 193 0.000000 0.000000 0.000000 0
402 193 0.000000 0.000000 0.000000 0
404 193 0.000000 0.000000 0.000000 0
406 193 0.000000 0.000000 0.000000 0
408 193 0.000000 0.000000 0.000000 0
410 193 0.000000 0.000000 0.000000 0
412 193 0.000000 0.000000 0.000000 0
414 193 0.000000 0.000000 0.000000 0
416 193 0.000000 0.000000 0.000000 0
418 193 0.000000 0.000000 0.000000 0
420 193 0.000000 0.000000 0.000000 0
422 193 0.000000 0.000000 0.000000 0
424 193 0.000000 0.000000 0.000000 0
426 193 0.000000 0.000000 0.000000 0
428 193 0.000000 0.000000 0.000000 0
430 193 0.000000 0.000000 0.000000 0
432 193 0.000000 0.000000 0.000000 0
434 193 0.000000 0.000000 0.000000 0
436 193 0.000000 0.000000 0.000000 0
438 193 0.000000 0.000000 0.000000 0
440 193 0.000000 0.000000 0.000000 0
442 193 0.000000 0.000000 0.000000 0
444 193 0.000000 0.000000 0.000000 0
446 193 0.000000 0.000000 0.000000 0
308 195 0.000000 0.000000 0.000000 0
310 195 0.000000 0.000000 0.000000 0
312 195 0.000000 0.000000 0.000000 0
314 195 0.000000 0.000000 0.000000 0
316 195 0.000000 0.000000 0.000000 0
318 195 0.000000 0.000000 0.000000 0
320 195 0.000000 0.000000 0.000000 0
322 195 0.000000 0.000000 0.000000 0
324 195 0.000000 0.000000 0.000000 0
326 195 0.000000 0.000000 0.000000 0
328 195 0.000000 0.000000 0.000000 0
330 195 0.000000 0.000000 0.000000 0
332 195 0.000000 0.000000 0.000000 0
334 195 0.000000 0.000000 0.000000 0
336 195 0.000000 0.000000 0.000000 0
338 195 0.000000 0.000000 0.000000 0
340 195 0.000000 0.000000 0.000000 0
342 195 0.000000 0.000000 0.000000 0
344 195 0.000000 0.000000 0.000000 0
346 195 0.000000 0.000000 0.000000 0
348 195 0.000000 0.000000 0.000000 0
350 195 0.000000 0.000000 0.000000 0
352 195 0.000000 0.000000 0.000000 0
354 195 0.000000 0.000000 0.000000 0
356 195 0.000000 0.000000 0.000000 0
358 195 0.000000 0.000000 0.000000 0
360 195 0.000000 0.000000 0.000000 0
362 195 0.000000 0.000000 0.000000 0
364 195 0.000000 0.000000 0.000000 0
366 195 0.000000 0.000000 0.000000 0
368 195 0.000000 0.000000 0.000000 0
370 195 0.000000 0.000000 0.000000 0
372 195 0.000000 0.000000 0.000000 0
374 195 0.000000 0.000000 0.000000 0
376 195 0.000000 0.000000 0.000000 0
378 195 0.000000 0.000000 0.000000 0
380 195 0.000000 0.000000 0.000000 0
382 195 0.000000 0.000000 0.000000 0
384 195 0.000000 0.000000 0.000000 0
386 195 0.000000 0.000000 0.000000 0
388 195 0.000000 0.000000 0.000000 0
390 195 0.000000 0.000000 0.000000 0
392 195 0.000000 0.000000 0.000000 0
394 195 0.000000 0.000000 0.000000 0
396 195 0.000000 0.000000 0.000000 0
398 195 0.000000 0.000000 0.000000 0
400 195 0.000000 0.000000 0.000000 0
402 195 0.000000 0.000000 0.000000 0
404 195 0.000000 0.000000 0.000000 0
406 195 0.000000 0.000000 0.000000 0
408 195 0.000000 0.000000 0.000000 0
410 195 0.000000 0.000000 0.000000 0
412 195 0.000000 0.000000 0.000000 0
414 195 0.000000 0.000000 0.000000 0
416 195 0.000000 0.000000 0.000000 0
418 195 0.000000 0.000000 0.000000 0
420 195 0.000000 0.000000 0.000000 0
422 195 0.000000 0.000000 0.000000 0
424 195 0.000000 0.000000 0.000000 0
426 195 0.000000 0.000000 0.000000 0
428 195 0.000000 0.000000 0.000000 0
430 195 0.000000 0.000000 0.000000 0
432 195 0.000000 0.000000 0.000000 0
434 195 0.000000 0.000000 0.000000 0
436 195 0.000000 0.000000 0.000000 0
438 195 0.000000 0.000000 0.000000 0
440 195 0.000000 0.000000 0.000000 0
442 195 0.000000 0.000000 0.000000 0
444 195 0.000000 0.000000 0.000000 0
446 195 0.000000 0.000000 0.000000 0
308 197 0.000000 0.000000 0.000000 0
310 197 0.000000 0.000000 0.000000 0
312 197 0.000000 0.000000 0.000000 0
314 197 0.000000 0.000000 0.000000 0
316 197 0.000000 0.000000 0.000000 0
318 197 -0.171216 0.220074 -0.026781 1
320 197 -0.182524 0.172893 -0.048240 1
322 197 -0.226809 0.117056 -0.049688 1
324 197 -0.270686 0.062543 -0.047873 1
326 197 -0.290458 0.005152 -0.048285 1
328 197 -0.291354 -0.058935 -0.056638 1
330 197 -0.281673 -0.123097 -0.075549 1
332 197 -0.252582 -0.184415 -0.095171 1
334 197 -0.209060 -0.243105 -0.107215 1
336 197 -0.169066 -0.293531 -0.116169 1
338 197 -0.136033 -0.339721 -0.123617 1
340 197 -0.102577 -0.387298 -0.137464 1
342 197 -0.063618 -0.424603 -0.164565 1
344 197 -0.010805 -0.453734 -0.190709 1
346 197 0.053099 -0.476494 -0.186569 1
348 197 0.123702 -0.490172 -0.150453 1
350 197 0.193279 -0.497064 -0.121619 1
352 197 0.257425 -0.489567 -0.115731 1
354 197 0.317562 -0.467079 -0.120098 1
356 197 0.370935 -0.437070 -0.120155 1
358 197 0.415794 -0.402302 -0.116469 1
360 197 0.456746 -0.368167 -0.122220 1
362 197 0.497109 -0.332827 -0.140701 1
364 197 0.537546 -0.293985 -0.158705 1
366 197 0.575104 -0.253555 -0.165580 1
368 197 0.605349 -0.209760 -0.161557 1
370 197 0.628058 -0.164349 -0.158079 1
372 197 0.640090 -0.116542 -0.150975 1
374 197 0.648181 -0.068988 -0.138799 1
376 197 0.658334 -0.022430 -0.126332 1
378 197 0.669500 0.023347 -0.124344 1
380 197 0.679309 0.066641 -0.135423 1
382 197 0.678112 0.110178 -0.147603 1
384 197 0.667189 0.155896 -0.152332 1
386 197 0.653819 0.202101 -0.144945 1
388 197 0.641826 0.243346 -0.130132 1
390 197 0.631050 0.277458 -0.109024 1
392 197 0.615717 0.307061 -0.093808 1
394 197 0.595372 0.338420 -0.095702 1
396 197 0.572263 0.378141 -0.115733 1
398 197 0.547222 0.421420 -0.141612 1
400 197 0.518999 0.465735 -0.152258 1
402 197 0.493892 0.505195 -0.135737 1
404 197 0.524099 0.539325 -0.112099 1
406 197 0.000000 0.000000 0.000000 0
408 197 0.000000 0.000000 0.000000 0
410 197 0.000000 0.000000 0.000000 0
412 197 0.000000 0.000000 0.000000 0
414 197 0.000000 0.000000 0.000000 0
416 197 0.000000 0.000000 0.000000 0
418 197 0.000000 0.000000 0.000000 0
420 197 0.000000 0.000000 0.000000 0
422 197 0.000000 0.000000 0.000000 0
424 197 0.000000 0.000000 0.000000 0
426 197 0.000000 0.000000 0.000000 0
428 197 0.000000 0.000000 0.000000 0
430 197 0.000000 0.000000 0.000000 0
432 197 0.000000 0.000000 0.000000 0
434 197 0.000000 0.000000 0.000000 0
436 197 0.000000 0.000000 0.000000 0
438 197 0.000000 0.000000 0.000000 0
440 197 0.000000 0.000000 0.000000 0
442 197 0.000000 0.000000 0.000000 0
444 197 0.000000 0.000000 0.000000 0
446 197 0.000000 0.000000 0.000000 0
308 199 0.000000 0.000000 0.000000 0
310 199 0.000000 0.000000 0.000000 0
312 199 0.000000 0.000000 0.000000 0
314 199 0.000000 0.000000 0.000000 0
316 199 -0.156651 0.303586 -0.006641 1
318 199 -0.180293 0.268622 0.002120 1
320 199 -0.223639 0.217418 0.007456 1
322 199 -0.262652 0.152748 0.000833 1
324 199 -0.296411 0.085230 -0.007949 1
326 199 -0.308889 0.015229 -0.017871 1
328 199 -0.304124 -0.063337 -0.033069 1
330 199 -0.288047 -0.142758 -0.052763 1
332 199 -0.250501 -0.221954 -0.071730 1
334 199 -0.196953 -0.303144 -0.087214 1
336 199 -0.150661 -0.371868 -0.107417 1
338 199 -0.112319 -0.432434 -0.134494 1
340 199 -0.073850 -0.486194 -0.163638 1
342 199 -0.027739 -0.526777 -0.200952 1
344 199 0.031908 -0.557176 -0.234172 1
346 199 0.101280 -0.579797 -0.240121 1
348 199 0.174683 -0.591409 -0.218793 1
350 199 0.245786 -0.595719 -0.197689 1
352 199 0.311039 -0.585529 -0.188997 1
354 199 0.373807 -0.560825 -0.183400 1
356 199 0.432160 -0.526914 -0.175866 1
358 199 0.481815 -0.484767 -0.174652 1
360 199 0.525797 -0.441167 -0.187330 1
362 199 0.566814 -0.393729 -0.209787 1
364 199 0.606482 -0.344749 -0.222967 1
366 199 0.643438 -0.294114 -0.215130 1
368 199 0.674573 -0.242828 -0.196612 1
370 199 0.699540 -0.190668 -0.183179 1
372 199 0.715153 -0.137144 -0.176409 1
374 199 0.726048 -0.085105 -0.169441 1
376 199 0.736364 -0.033909 -0.159969 1
378 199 0.744569 0.016300 -0.154119 1
380 199 0.749323 0.065454 -0.156597 1
382 199 0.745075 0.114735 -0.161555 1
384 199 0.733453 0.166328 -0.161219 1
386 199 0.719999 0.217846 -0.152920 1
388 199 0.706355 0.263216 -0.138904 1
390 199 0.691008 0.301547 -0.118123 1
392 199 0.670796 0.334851 -0.101183 1
394 199 0.645448 0.370385 -0.099235 1
396 199 0.620125 0.413372 -0.115038 1
398 199 0.596977 0.458644 -0.136469 1
400 199 0.576648 0.502711 -0.142218 1
402 199 0.560656 0.540055 -0.122160 1
404 199 0.546417 0.567602 -0.082338 1
406 199 0.570477 0.590324 -0.056998 1
408 199 0.000000 0.000000 0.000000 0
410 199 0.000000 0.000000 0.000000 0
412 199 0.000000 0.000000 0.000000 0
414 199 0.000000 0.000000 0.000000 0
416 199 0.000000 0.000000 0.000000 0
418 199 0.000000 0.000000 0.000000 0
420 199 0.000000 0.000000 0.000000 0
422 199 0.000000 0.000000 0.000000 0
424 199 0.000000 0.000000 0.000000 0
426 199 0.000000 0.000000 0.000000 0
428 199 0.000000 0.000000 0.000000 0
430 199 0.000000 0.000000 0.000000 0
432 199 0.000000 0.000000 0.000000 0
434 199 0.000000 0.000000 0.000000 0
436 199 0.000000 0.000000 0.000000 0
438 199 0.000000 0.000000 0.000000 0
440 199 0.000000 0.000000 0.000000 0
442 199 0.000000 0.000000 0.000000 0
444 199 0.000000 0.000000 0.000000 0
446 199 0.000000 0.000000 0.000000 0
308 201 0.000000 0.000000 0.000000 0
310 201 0.000000 0.000000 0.000000 0
312 201 0.000000 0.000000 0.000000 0
314 201 0.000000 0.000000 0.000000 0
316 201 -0.156221 0.349980 0.019931 1
318 201 -0.193214 0.319816 0.037011 1
320 201 -0.233073 0.258407 0.041347 1
322 201 -0.263833 0.183499 0.029575 1
324 201 -0.285937 0.104210 0.017295 1
326 201 -0.286207 0.018921 0.005890 1
328 201 -0.273365 -0.072518 -0.007577 1
330 201 -0.245524 -0.166520 -0.016419 1
332 201 -0.193178 -0.262034 -0.019638 1
334 201 -0.124892 -0.359622 -0.021214 1
336 201 -0.068579 -0.442688 -0.043817 1
338 201 -0.027125 -0.509781 -0.088254 1
340 201 0.010252 -0.565891 -0.146214 1
342 201 0.054480 -0.606486 -0.205513 1
344 201 0.110451 -0.636356 -0.258173 1
346 201 0.175645 -0.658492 -0.281979 1
348 201 0.242289 -0.669717 -0.276623 1
350 201 0.306200 -0.674003 -0.262796 1
352 201 0.365082 -0.664234 -0.249086 1
354 201 0.421975 -0.639775 -0.231604 1
356 201 0.479149 -0.603814 -0.216145 1
358 201 0.529865 -0.555867 -0.214341 1
360 201 0.576714 -0.503622 -0.229343 1
362 201 0.619608 -0.447249 -0.251097 1
364 201 0.660036 -0.388837 -0.258266 1
366 201 0.697513 -0.331220 -0.241565 1
368 201 0.729982 -0.272948 -0.214460 1
370 201 0.757420 -0.214778 -0.196873 1
372 201 0.776880 -0.155152 -0.191666 1
374 201 0.791761 -0.097888 -0.187292 1
376 201 0.804090 -0.042790 -0.176614 1
378 201 0.811602 0.011766 -0.163472 1
380 201 0.814012 0.065237 -0.158158 1
382 201 0.807496 0.120021 -0.157613 1
384 201 0.794985 0.176676 -0.155747 1
386 201 0.780337 0.232227 -0.150474 1
388 201 0.763627 0.281101 -0.141698 1
390 201 0.744004 0.322925 -0.126085 1
392 201 0.718945 0.361144 -0.112213 1
394 201 0.690226 0.400708 -0.109395 1
396 201 0.662953 0.446417 -0.119939 1
398 201 0.641083 0.492319 -0.133930 1
400 201 0.625156 0.534764 -0.131890 1
402 201 0.614351 0.568257 -0.106749 1
404 201 0.602209 0.590535 -0.066745 1
406 201 0.582660 0.608996 -0.035025 1
408 201 0.597176 0.623569 -0.021383 1
410 201 0.000000 0.000000 0.000000 0
412 201 0.000000 0.000000 0.000000 0
414 201 0.000000 0.000000 0.000000 0
416 201 0.000000 0.000000 0.000000 0
418 201 0.000000 0.000000 0.000000 0
420 201 0.000000 0.000000 0.000000 0
422 201 0.000000 0.000000 0.000000 0
424 201 0.000000 0.000000 0.000000 0
426 201 0.000000 0.000000 0.000000 0
428 201 0.000000 0.000000 0.000000 0
430 201 0.000000 0.000000 0.000000 0
432 201 0.000000 0.000000 0.000000 0
434 201 0.000000 0.000000 0.000000 0
436 201 0.000000 0.000000 0.000000 0
438 201 0.000000 0.000000 0.000000 0
440 201 0.000000 0.000000 0.000000 0
442 201 0.000000 0.000000 0.000000 0
444 201 0.000000 0.000000 0.000000 0
446 201 0.000000 0.000000 0.000000 0
308 203 0.000000 0.000000 0.000000 0
310 203 0.000000 0.000000 0.000000 0
312 203 0.000000 0.000000 0.000000 0
314 203 0.000000 0.000000 0.000000 0
316 203 -0.117123 0.393299 0.072150 1
318 203 -0.133461 0.351748 0.098628 1
320 203 -0.149577 0.279250 0.096048 1
322 203 -0.161821 0.194949 0.076551 1
324 203 -0.168202 0.104103 0.063350 1
326 203 -0.157259 0.006982 0.057714 1
328 203 -0.132013 -0.098525 0.054200 1
330 203 -0.091909 -0.203817 0.059417 1
332 203 -0.025782 -0.311378 0.078259 1
334 203 0.050730 -0.417728 0.094467 1
336 203 0.110538 -0.505648 0.076311 1
338 203 0.151343 -0.573660 0.017136 1
340 203 0.184504 -0.628866 -0.064683 1
342 203 0.220385 -0.667723 -0.154241 1
344 203 0.267216 -0.696124 -0.227852 1
346 203 0.321317 -0.716951 -0.271414 1
348 203 0.375944 -0.727378 -0.280960 1
350 203 0.427844 -0.731740 -0.275177 1
352 203 0.471668 -0.723074 -0.263395 1
354 203 0.513383 -0.700344 -0.246563 1
356 203 0.555459 -0.665434 -0.232427 1
358 203 0.597565 -0.615514 -0.231863 1
360 203 0.640408 -0.558305 -0.245689 1
362 203 0.681524 -0.495207 -0.263774 1
364 203 0.720196 -0.430265 -0.266797 1
366 203 0.755252 -0.366065 -0.246899 1
368 203 0.785880 -0.302523 -0.219968 1
370 203 0.812789 -0.237856 -0.205203 1
372 203 0.833377 -0.171829 -0.203809 1
374 203 0.850307 -0.108482 -0.201253 1
376 203 0.863800 -0.048770 -0.187179 1
378 203 0.871334 0.009065 -0.165855 1
380 203 0.872688 0.066225 -0.149732 1
382 203 0.865187 0.124833 -0.144096 1
384 203 0.851902 0.186103 -0.141966 1
386 203 0.835607 0.244972 -0.140906 1
388 203 0.815551 0.296968 -0.139049 1
390 203 0.791612 0.343220 -0.131570 1
392 203 0.763193 0.386320 -0.123196 1
394 203 0.731451 0.430876 -0.121597 1
396 203 0.702619 0.478084 -0.127358 1
398 203 0.680678 0.523173 -0.132473 1
400 203 0.665841 0.563257 -0.122787 1
402 203 0.655815 0.593132 -0.093705 1
404 203 0.643534 0.610725 -0.054911 1
406 203 0.624679 0.625368 -0.026205 1
408 203 0.616439 0.632239 -0.017604 1
410 203 0.000000 0.000000 0.000000 0
412 203 0.000000 0.000000 0.000000 0
414 203 0.000000 0.000000 0.000000 0
416 203 0.000000 0.000000 0.000000 0
418 203 0.000000 0.000000 0.000000 0
420 203 0.000000 0.000000 0.000000 0
422 203 0.000000 0.000000 0.000000 0
424 203 0.000000 0.000000 0.000000 0
426 203 0.000000 0.000000 0.000000 0
428 203 0.000000 0.000000 0.000000 0
430 203 0.000000 0.000000 0.000000 0
432 203 0.000000 0.000000 0.000000 0
434 203 0.000000 0.000000 0.000000 0
436 203 0.000000 0.000000 0.000000 0
438 203 0.000000 0.000000 0.000000 0
440 203 0.000000 0.000000 0.000000 0
442 203 0.000000 0.000000 0.000000 0
444 203 0.000000 0.000000 0.000000 0
446 203 0.000000 0.000000 0.000000 0
308 205 0.000000 0.000000 0.000000 0
310 205 0.000000 0.000000 0.000000 0
312 205 0.000000 0.000000 0.000000 0
314 205 0.000000 0.000000 0.000000 0
316 205 -0.010464 0.408158 0.175916 1
318 205 0.012306 0.359561 0.209223 1
320 205 0.038190 0.270488 0.210205 1
322 205 0.059296 0.177470 0.188525 1
324 205 0.070824 0.079501 0.179056 1
326 205 0.092201 -0.027101 0.182139 1
328 205 0.126551 -0.142162 0.185959 1
330 205 0.175919 -0.256945 0.195975 1
332 205 0.244804 -0.370165 0.220371 1
334 205 0.316259 -0.478257 0.236956 1
336 205 0.371448 -0.565655 0.217183 1
338 205 0.410455 -0.632702 0.151793 1
340 205 0.442163 -0.687745 0.056506 1
342 205 0.473876 -0.726076 -0.048563 1
344 205 0.511992 -0.752442 -0.138157 1
346 205 0.555850 -0.770322 -0.194500 1
348 205 0.598886 -0.776001 -0.215474 1
350 205 0.637622 -0.775700 -0.220217 1
352 205 0.664380 -0.763367 -0.221366 1
354 205 0.680088 -0.740097 -0.225452 1
356 205 0.697916 -0.707213 -0.228584 1
358 205 0.716997 -0.659905 -0.237717 1
360 205 0.746412 -0.602982 -0.250211 1
362 205 0.777169 -0.538242 -0.262685 1
364 205 0.806859 -0.469835 -0.261975 1
366 205 0.833167 -0.402002 -0.242743 1
368 205 0.855505 -0.333681 -0.220383 1
370 205 0.877658 -0.263635 -0.210826 1
372 205 0.895732 -0.189975 -0.214219 1
374 205 0.911599 -0.119608 -0.214291 1
376 205 0.923567 -0.053581 -0.200126 1
378 205 0.929640 0.008933 -0.173752 1
380 205 0.929926 0.069397 -0.150324 1
382 205 0.922048 0.131901 -0.138187 1
384 205 0.908537 0.196646 -0.134232 1
386 205 0.890804 0.259333 -0.134895 1
388 205 0.868108 0.315440 -0.137822 1
390 205 0.841084 0.367303 -0.137239 1
392 205 0.809888 0.416387 -0.134348 1
394 205 0.776182 0.464690 -0.132855 1
396 205 0.745688 0.511488 -0.130656 1
398 205 0.722719 0.553763 -0.127012 1
400 205 0.706188 0.590184 -0.111876 1
402 205 0.694530 0.617301 -0.083162 1
404 205 0.681520 0.632616 -0.047411 1
406 205 0.663592 0.645143 -0.020534 1
408 205 0.656377 0.650902 -0.011998 1
410 205 0.000000 0.000000 0.000000 0
412 205 0.000000 0.000000 0.000000 0
414 205 0.000000 0.000000 0.000000 0
416 205 0.000000 0.000000 0.000000 0
418 205 0.000000 0.000000 0.000000 0
420 205 0.000000 0.000000 0.000000 0
422 205 0.000000 0.000000 0.000000 0
424 205 0.000000 0.000000 0.000000 0
426 205 0.000000 0.000000 0.000000 0
428 205 0.000000 0.000000 0.000000 0
430 205 0.000000 0.000000 0.000000 0
432 205 0.000000 0.000000 0.000000 0
434 205 0.000000 0.000000 0.000000 0
436 205 0.000000 0.000000 0.000000 0
438 205 0.000000 0.000000 0.000000 0
440 205 0.000000 0.000000 0.000000 0
442 205 0.000000 0.000000 0.000000 0
444 205 0.000000 0.000000 0.000000 0
446 205 0.000000 0.000000 0.000000 0
308 207 0.000000 0.000000 0.000000 0
310 207 0.000000 0.000000 0.000000 0
312 207 0.000000 0.000000 0.000000 0
314 207 0.000000 0.000000 0.000000 0
316 207 0.166371 0.422189 0.277158 1
318 207 0.188915 0.353345 0.323294 1
320 207 0.252203 0.250382 0.338175 1
322 207 0.309999 0.148234 0.331005 1
324 207 0.337279 0.046919 0.332321 1
326 207 0.362924 -0.063111 0.344245 1
328 207 0.400816 -0.184061 0.350558 1
330 207 0.453188 -0.304426 0.352917 1
332 207 0.520817 -0.422198 0.361966 1
334 207 0.587767 -0.531508 0.362882 1
336 207 0.639702 -0.619292 0.332073 1
338 207 0.680402 -0.687676 0.263042 1
340 207 0.715728 -0.745421 0.166606 1
342 207 0.749142 -0.785522 0.058575 1
344 207 0.785227 -0.810263 -0.033302 1
346 207 0.822867 -0.822431 -0.094718 1
348 207 0.858934 -0.819557 -0.122176 1
350 207 0.887930 -0.808676 -0.137064 1
352 207 0.899841 -0.786958 -0.154955 1
354 207 0.895185 -0.758507 -0.183995 1
356 207 0.885236 -0.725809 -0.217700 1
358 207 0.881525 -0.681906 -0.243261 1
360 207 0.889141 -0.629625 -0.260006 1
362 207 0.904050 -0.568251 -0.268376 1
364 207 0.917763 -0.501878 -0.263541 1
366 207 0.928801 -0.434330 -0.244220 1
368 207 0.939402 -0.364784 -0.223948 1
370 207 0.952776 -0.290669 -0.216952 1
372 207 0.966654 -0.211559 -0.221095 1
374 207 0.979236 -0.133401 -0.223062 1
376 207 0.988104 -0.059986 -0.211806 1
378 207 0.991476 0.009273 -0.186896 1
380 207 0.990036 0.074919 -0.161080 1
382 207 0.981752 0.141311 -0.145142 1
384 207 0.968320 0.210079 -0.137493 1
386 207 0.949722 0.276295 -0.136743 1
388 207 0.925312 0.337215 -0.140261 1
390 207 0.896345 0.394757 -0.143098 1
392 207 0.863490 0.449372 -0.143004 1
394 207 0.828546 0.501073 -0.139459 1
396 207 0.797011 0.546719 -0.129848 1
398 207 0.771731 0.584213 -0.116631 1
400 207 0.751503 0.616413 -0.099130 1
402 207 0.735813 0.640824 -0.073673 1
404 207 0.721355 0.655468 -0.041661 1
406 207 0.704121 0.667514 -0.014776 1
408 207 0.698220 0.672584 -0.004092 1
410 207 0.000000 0.000000 0.000000 0
412 207 0.000000 0.000000 0.000000 0
414 207 0.000000 0.000000 0.000000 0
416 207 0.000000 0.000000 0.000000 0
418 207 0.000000 0.000000 0.000000 0
420 207 0.000000 0.000000 0.000000 0
422 207 0.000000 0.000000 0.000000 0
424 207 0.000000 0.000000 0.000000 0
426 207 0.000000 0.000000 0.000000 0
428 207 0.000000 0.000000 0.000000 0
430 207 0.000000 0.000000 0.000000 0
432 207 0.000000 0.000000 0.000000 0
434 207 0.000000 0.000000 0.000000 0
436 207 0.000000 0.000000 0.000000 0
438 207 0.000000 0.000000 0.000000 0
440 207 0.000000 0.000000 0.000000 0
442 207 0.000000 0.000000 0.000000 0
444 207 0.000000 0.000000 0.000000 0
446 207 0.000000 0.000000 0.000000 0
308 209 0.000000 0.000000 0.000000 0
310 209 0.000000 0.000000 0.000000 0
312 209 0.000000 0.000000 0.000000 0
314 209 0.000000 0.000000 0.000000 0
316 209 0.430858 0.416141 0.324149 1
318 209 0.462348 0.333535 0.382041 1
320 209 0.543080 0.217099 0.415998 1
322 209 0.615016 0.110345 0.425997 1
324 209 0.646898 0.010045 0.442736 1
326 209 0.666378 -0.097439 0.462949 1
328 209 0.697601 -0.217888 0.469347 1
330 209 0.747153 -0.341036 0.458021 1
332 209 0.814401 -0.462064 0.447536 1
334 209 0.884381 -0.574924 0.424221 1
336 209 0.939769 -0.666249 0.381206 1
338 209 0.984217 -0.740052 0.311433 1
340 209 1.022524 -0.803181 0.224672 1
342 209 1.057844 -0.845670 0.130913 1
344 209 1.094233 -0.866128 0.054280 1
346 209 1.129930 -0.869339 -0.000271 1
348 209 1.160561 -0.850593 -0.030073 1
350 209 1.182271 -0.824809 -0.053229 1
352 209 1.184161 -0.788761 -0.084380 1
354 209 1.167301 -0.750584 -0.131865 1
356 209 1.142212 -0.713339 -0.186178 1
358 209 1.117494 -0.669518 -0.229875 1
360 209 1.104411 -0.620898 -0.255201 1
362 209 1.093048 -0.567228 -0.266588 1
364 209 1.081644 -0.508914 -0.263019 1
366 209 1.067339 -0.448652 -0.246320 1
368 209 1.057651 -0.383490 -0.227724 1
370 209 1.056732 -0.310689 -0.219524 1
372 209 1.058724 -0.229884 -0.220576 1
374 209 1.063446 -0.147345 -0.222686 1
376 209 1.064414 -0.066558 -0.216293 1
378 209 1.062892 0.010211 -0.196757 1
380 209 1.058210 0.082719 -0.174205 1
382 209 1.048346 0.154583 -0.157793 1
384 209 1.033987 0.227276 -0.147929 1
386 209 1.013824 0.297610 -0.143538 1
388 209 0.988128 0.362310 -0.144059 1
390 209 0.957969 0.424500 -0.144842 1
392 209 0.924861 0.482570 -0.142063 1
394 209 0.890065 0.535609 -0.133064 1
396 209 0.857563 0.579325 -0.116685 1
398 209 0.829151 0.613216 -0.099549 1
400 209 0.802508 0.641297 -0.082627 1
402 209 0.782534 0.664100 -0.059335 1
404 209 0.767387 0.679189 -0.026788 1
406 209 0.752003 0.691578 0.004067 1
408 209 0.746650 0.696582 0.017252 1
410 209 0.000000 0.000000 0.000000 0
412 209 0.000000 0.000000 0.000000 0
414 209 0.000000 0.000000 0.000000 0
416 209 0.000000 0.000000 0.000000 0
418 209 0.000000 0.000000 0.000000 0
420 209 0.000000 0.000000 0.000000 0
422 209 0.000000 0.000000 0.000000 0
424 209 0.000000 0.000000 0.000000 0
426 209 0.000000 0.000000 0.000000 0
428 209 0.000000 0.000000 0.000000 0
430 209 0.000000 0.000000 0.000000 0
432 209 0.000000 0.000000 0.000000 0
434 209 0.000000 0.000000 0.000000 0
436 209 0.000000 0.000000 0.000000 0
438 209 0.000000 0.000000 0.000000 0
440 209 0.000000 0.000000 0.000000 0
442 209 0.000000 0.000000 0.000000 0
444 209 0.000000 0.000000 0.000000 0
446 209 0.000000 0.000000 0.000000 0
308 211 0.000000 0.000000 0.000000 0
310 211 0.000000 0.000000 0.000000 0
312 211 0.000000 0.000000 0.000000 0
314 211 0.000000 0.000000 0.000000 0
316 211 0.750229 0.396246 0.350793 1
318 211 0.789407 0.304316 0.412407 1
320 211 0.871505 0.180650 0.452953 1
322 211 0.948369 0.070955 0.471450 1
324 211 0.981561 -0.026400 0.492921 1
326 211 0.992842 -0.128933 0.514816 1
328 211 1.013098 -0.246405 0.516754 1
330 211 1.056075 -0.370629 0.492579 1
332 211 1.121952 -0.495235 0.463122 1
334 211 1.195624 -0.612608 0.421756 1
336 211 1.255773 -0.710048 0.364809 1
338 211 1.301730 -0.789860 0.297050 1
340 211 1.339353 -0.858016 0.227270 1
342 211 1.374181 -0.901404 0.158430 1
344 211 1.410918 -0.916426 0.104987 1
346 211 1.446029 -0.908219 0.066234 1
348 211 1.473642 -0.875876 0.039370 1
350 211 1.490081 -0.833605 0.012681 1
352 211 1.487949 -0.784048 -0.022630 1
354 211 1.469637 -0.733111 -0.072364 1
356 211 1.440977 -0.685656 -0.131697 1
358 211 1.407251 -0.635069 -0.182953 1
360 211 1.374484 -0.585112 -0.220128 1
362 211 1.339006 -0.536744 -0.241265 1
364 211 1.294430 -0.489932 -0.248308 1
366 211 1.249733 -0.440833 -0.240745 1
368 211 1.211914 -0.385376 -0.229726 1
370 211 1.187410 -0.319219 -0.223350 1
372 211 1.171357 -0.241877 -0.223274 1
374 211 1.159952 -0.158925 -0.224975 1
376 211 1.149748 -0.074397 -0.221360 1
378 211 1.139706 0.009330 -0.206293 1
380 211 1.130511 0.089146 -0.187121 1
382 211 1.117997 0.167843 -0.171340 1
384 211 1.101664 0.245916 -0.159845 1
386 211 1.079355 0.319936 -0.152284 1
388 211 1.051373 0.388182 -0.147349 1
390 211 1.019458 0.452873 -0.143528 1
392 211 0.985065 0.512392 -0.135295 1
394 211 0.949915 0.565279 -0.120481 1
396 211 0.916306 0.607823 -0.100190 1
398 211 0.884729 0.639931 -0.081124 1
400 211 0.854324 0.666929 -0.062097 1
402 211 0.831771 0.689252 -0.034526 1
404 211 0.818057 0.705039 0.004041 1
406 211 0.806013 0.717850 0.042034 1
408 211 0.802064 0.722967 0.056111 1
410 211 0.000000 0.000000 0.000000 0
412 211 0.000000 0.000000 0.000000 0
414 211 0.000000 0.000000 0.000000 0
416 211 0.000000 0.000000 0.000000 0
418 211 0.000000 0.000000 0.000000 0
420 211 0.000000 0.000000 0.000000 0
422 211 0.000000 0.000000 0.000000 0
424 211 0.000000 0.000000 0.000000 0
426 211 0.000000 0.000000 0.000000 0
428 211 0.000000 0.000000 0.000000 0
430 211 0.000000 0.000000 0.000000 0
432 211 0.000000 0.000000 0.000000 0
434 211 0.000000 0.000000 0.000000 0
436 211 0.000000 0.000000 0.000000 0
438 211 0.000000 0.000000 0.000000 0
440 211 0.000000 0.000000 0.000000 0
442 211 0.000000 0.000000 0.000000 0
444 211 0.000000 0.000000 0.000000 0
446 211 0.000000 0.000000 0.000000 0
308 213 0.000000 0.000000 0.000000 0
310 213 0.000000 0.000000 0.000000 0
312 213 0.000000 0.000000 0.000000 0
314 213 0.000000 0.000000 0.000000 0
316 213 1.074263 0.376399 0.356258 1
318 213 1.111388 0.280747 0.422885 1
320 213 1.190788 0.152815 0.466281 1
322 213 1.267378 0.039898 0.486997 1
324 213 1.303356 -0.056580 0.501367 1
326 213 1.312112 -0.155135 0.507949 1
328 213 1.326721 -0.269601 0.486637 1
330 213 1.366412 -0.394791 0.442604 1
332 213 1.429812 -0.522922 0.402165 1
334 213 1.501648 -0.645904 0.353992 1
336 213 1.559531 -0.747926 0.293588 1
338 213 1.599772 -0.830806 0.234128 1
340 213 1.631586 -0.898536 0.182240 1
342 213 1.661066 -0.938033 0.138568 1
344 213 1.694751 -0.945998 0.107681 1
346 213 1.728361 -0.929236 0.085794 1
348 213 1.754009 -0.886346 0.068798 1
350 213 1.768845 -0.834438 0.046035 1
352 213 1.767420 -0.773304 0.015935 1