TITLE = "B00032"
VARIABLES = "X", "Y", "Vx", "Vy", "Vz", "flag"
ZONE T="B00032", I=70, J=78
308 191 0.000000 0.000000 0.000000 0
310 191 0.000000 0.000000 0.000000 0
312 191 0.000000 0.000000 0.000000 0
314 191 0.000000 0.000000 0.000000 0
316 191 0.000000 0.000000 0.000000 0
318 191 0.000000 0.000000 0.000000 0
320 191 0.000000 0.000000 0.000000 0
322 191 0.000000 0.000000 0.000000 0
324 191 0.000000 0.000000 0.000000 0
326 191 0.000000 0.000000 0.000000 0
328 191 0.000000 0.000000 0.000000 0
330 191 0.000000 0.000000 0.000000 0
332 191 0.000000 0.000000 0.000000 0
334 191 0.000000 0.000000 0.000000 0
336 191 0.000000 0.000000 0.000000 0
338 191 0.000000 0.000000 0.000000 0
340 191 0.000000 0.000000 0.000000 0
342 191 0.000000 0.000000 0.000000 0
344 191 0.000000 0.000000 0.000000 0
346 191 0.000000 0.000000 0.000000 0
348 191 0.000000 0.000000 0.000000 0
350 191 0.000000 0.000000 0.000000 0
352 191 0.000000 0.000000 0.000000 0
354 191 0.000000 0.000000 0.000000 0
356 191 0.000000 0.000000 0.000000 0
358 191 0.000000 0.000000 0.000000 0
360 191 0.000000 0.000000 0.000000 0
362 191 0.000000 0.000000 0.000000 0
364 191 0.000000 0.000000 0.000000 0
366 191 0.000000 0.000000 0.000000 0
368 191 0.000000 0.000000 0.000000 0
370 191 0.000000 0.000000 0.000000 0
372 191 0.000000 0.000000 0.000000 0
374 191 0.000000 0.000000 0.000000 0
376 191 0.000000 0.000000 0.000000 0
378 191 0.000000 0.000000 0.000000 0
380 191 0.000000 0.000000 0.000000 0
382 191 0.000000 0.000000 0.000000 0
384 191 0.000000 0.000000 0.000000 0
386 191 0.000000 0.000000 0.000000 0
388 191 0.000000 0.000000 0.000000 0
390 191 0.000000 0.000000 0.000000 0
392 191 0.000000 0.000000 0.000000 0
394 191 0.000000 0.000000 0.000000 0
396 191 0.000000 0.000000 0.000000 0
398 191 0.000000 0.000000 0.000000 0
400 191 0.000000 0.000000 0.000000 0
402 191 0.000000 0.000000 0.000000 0
404 191 0.000000 0.000000 0.000000 0
406 191 0.000000 0.000000 0.000000 0
408 191 0.000000 0.000000 0.000000 0
410 191 0.000000 0.000000 0.000000 0
412 191 0.000000 0.000000 0.000000 0
414 191 0.000000 0.000000 0.000000 0
416 191 0.000000 0.000000 0.000000 0
418 191 0.000000 0.000000 0.000000 0
420 191 0.000000 0.000000 0.000000 0
422 191 0.000000 0.000000 0.000000 0
424 191 0.000000 0.000000 0.000000 0
426 191 0.000000 0.000000 0.000000 0
428 191 0.000000 0.000000 0.000000 0
430 191 0.000000 0.000000 0.000000 0
432 191 0.000000 0.000000 0.000000 0
434 191 0.000000 0.000000 0.000000 0
436 191 0.000000 0.000000 0.000000 0
438 191 0.000000 0.000000 0.000000 0
440 191 0.000000 0.000000 0.000000 0
442 191 0.000000 0.000000 0.000000 0
444 191 0.000000 0.000000 0.000000 0
446 191 0.000000 0.000000 0.000000 0
308 193 0.000000 0.000000 0.000000 0
310 193 0.000000 0.000000 0.000000 0
312 193 0.000000 0.000000 0.000000 0
314 193 0.000000 0.000000 0.000000 0
316 193 0.000000 0.000000 0.000000 0
318 193 0.000000 0.000000 0.000000 0
320 193 0.000000 0.000000 0.000000 0
322 193 0.000000 0.000000 0.000000 0
324 193 0.000000 0.000000 0.000000 0
326 193 0.000000 0.000000 0.000000 0
328 193 0.000000 0.000000 0.000000 0
330 193 0.000000 0.000000 0.000000 0
332 193 0.000000 0.000000 0.000000 0
334 193 0.000000 0.000000 0.000000 0
336 193 0.000000 0.000000 0.000000 0
338 193 0.000000 0.000000 0.000000 0
340 193 0.000000 0.000000 0.000000 0
342 193 0.000000 0.000000 0.000000 0
344 193 0.000000 0.000000 0.000000 0
346 193 0.000000 0.000000 0.000000 0
348 193 0.000000 0.000000 0.000000 0
350 193 0.000000 0.000000 0.000000 0
352 193 0.000000 0.000000 0.000000 0
354 193 0.000000 0.000000 0.000000 0
356 193 0.000000 0.000000 0.000000 0
358 193 0.000000 0.000000 0.000000 0
360 193 0.000000 0.000000 0.000000 0
362 193 0.000000 0.000000 0.000000 0
364 193 0.000000 0.000000 0.000000 0
366 193 0.000000 0.000000 0.000000 0
368 193 0.000000 0.000000 0.000000 0
370 193 0.000000 0.000000 0.000000 0
372 193 0.000000 0.000000 0.000000 0
374 193 0.000000 0.000000 0.000000 0
376 193 0.000000 0.000000 0.000000 0
378 193 0.000000 0.000000 0.000000 0
380 193 0.000000 0.000000 0.000000 0
382 193 0.000000 0.000000 0.000000 0
384 193 0.000000 0.000000 0.000000 0
386 193 0.000000 0.000000 0.000000 0
388 193 0.000000 0.000000 0.000000 0
390 193 0.000000 0.000000 0.000000 0
392 193 0.000000 0.000000 0.000000 0
394 193 0.000000 0.000000 0.000000 0
396 193 0.000000 0.000000 0.000000 0
398 193 0.000000 0.000000 0.000000 0
400 193 0.000000 0.000000 0.000000 0
402 193 0.000000 0.000000 0.000000 0
404 193 0.000000 0.000000 0.000000 0
406 193 0.000000 0.000000 0.000000 0
408 193 0.000000 0.000000 0.000000 0
410 193 0.000000 0.000000 0.000000 0
412 193 0.000000 0.000000 0.000000 0
414 193 0.000000 0.000000 0.000000 0
416 193 0.000000 0.000000 0.000000 0
418 193 0.000000 0.000000 0.000000 0
420 193 0.000000 0.000000 0.000000 0
422 193 0.000000 0.000000 0.000000 0
424 193 0.000000 0.000000 0.000000 0
426 193 0.000000 0.000000 0.000000 0
428 193 0.000000 0.000000 0.000000 0
430 193 0.000000 0.000000 0.000000 0
432 193 0.000000 0.000000 0.000000 0
434 193 0.000000 0.000000 0.000000 0
436 193 0.000000 0.000000 0.000000 0
438 193 0.000000 0.000000 0.000000 0
440 193 0.000000 0.000000 0.000000 0
442 193 0.000000 0.000000 0.000000 0
444 193 0.000000 0.000000 0.000000 0
446 193 0.000000 0.000000 0.000000 0
308 195 0.000000 0.000000 0.000000 0
310 195 0.000000 0.000000 0.000000 0
312 195 0.000000 0.000000 0.000000 0
314 195 0.000000 0.000000 0.000000 0
316 195 0.000000 0.000000 0.000000 0
318 195 0.000000 0.000000 0.000000 0
320 195 0.000000 0.000000 0.000000 0
322 195 0.000000 0.000000 0.000000 0
324 195 0.000000 0.000000 0.000000 0
326 195 0.000000 0.000000 0.000000 0
328 195 0.000000 0.000000 0.000000 0
330 195 0.000000 0.000000 0.000000 0
332 195 0.000000 0.000000 0.000000 0
334 195 0.000000 0.000000 0.000000 0
336 195 0.000000 0.000000 0.000000 0
338 195 0.000000 0.000000 0.000000 0
340 195 0.000000 0.000000 0.000000 0
342 195 0.000000 0.000000 0.000000 0
344 195 0.000000 0.000000 0.000000 0
346 195 0.000000 0.000000 0.000000 0
348 195 0.000000 0.000000 0.000000 0
350 195 0.000000 0.000000 0.000000 0
352 195 0.000000 0.000000 0.000000 0
354 195 0.000000 0.000000 0.000000 0
356 195 0.000000 0.000000 0.000000 0
358 195 0.000000 0.000000 0.000000 0
360 195 0.000000 0.000000 0.000000 0
362 195 0.000000 0.000000 0.000000 0
364 195 0.000000 0.000000 0.000000 0
366 195 0.000000 0.000000 0.000000 0
368 195 0.000000 0.000000 0.000000 0
370 195 0.000000 0.000000 0.000000 0
372 195 0.000000 0.000000 0.000000 0
374 195 0.000000 0.000000 0.000000 0
376 195 0.000000 0.000000 0.000000 0
378 195 0.000000 0.000000 0.000000 0
380 195 0.000000 0.000000 0.000000 0
382 195 0.000000 0.000000 0.000000 0
384 195 0.000000 0.000000 0.000000 0
386 195 0.000000 0.000000 0.000000 0
388 195 0.000000 0.000000 0.000000 0
390 195 0.000000 0.000000 0.000000 0
392 195 0.000000 0.000000 0.000000 0
394 195 0.000000 0.000000 0.000000 0
396 195 0.000000 0.000000 0.000000 0
398 195 0.000000 0.000000 0.000000 0
400 195 0.000000 0.000000 0.000000 0
402 195 0.000000 0.000000 0.000000 0
404 195 0.000000 0.000000 0.000000 0
406 195 0.000000 0.000000 0.000000 0
408 195 0.000000 0.000000 0.000000 0
410 195 0.000000 0.000000 0.000000 0
412 195 0.000000 0.000000 0.000000 0
414 195 0.000000 0.000000 0.000000 0
416 195 0.000000 0.000000 0.000000 0
418 195 0.000000 0.000000 0.000000 0
420 195 0.000000 0.000000 0.000000 0
422 195 0.000000 0.000000 0.000000 0
424 195 0.000000 0.000000 0.000000 0
426 195 0.000000 0.000000 0.000000 0
428 195 0.000000 0.000000 0.000000 0
430 195 0.000000 0.000000 0.000000 0
432 195 0.000000 0.000000 0.000000 0
434 195 0.000000 0.000000 0.000000 0
436 195 0.000000 0.000000 0.000000 0
438 195 0.000000 0.000000 0.000000 0
440 195 0.000000 0.000000 0.000000 0
442 195 0.000000 0.000000 0.000000 0
444 195 0.000000 0.000000 0.000000 0
446 195 0.000000 0.000000 0.000000 0
308 197 0.000000 0.000000 0.000000 0
310 197 0.000000 0.000000 0.000000 0
312 197 0.000000 0.000000 0.000000 0
314 197 0.000000 0.000000 0.000000 0
316 197 0.000000 0.000000 0.000000 0
318 197 0.285192 0.319972 -0.034753 1
320 197 0.242253 0.337004 -0.040360 1
322 197 0.203808 0.380812 -0.038627 1
324 197 0.162537 0.418078 -0.036390 1
326 197 0.119433 0.444498 -0.031738 1
328 197 0.071528 0.470151 -0.040634 1
330 197 0.014499 0.495536 -0.067150 1
332 197 -0.045532 0.504319 -0.092165 1
334 197 -0.104063 0.498024 -0.097249 1
336 197 -0.164041 0.480551 -0.087334 1
338 197 -0.226471 0.453553 -0.062661 1
340 197 -0.279330 0.418117 -0.035247 1
342 197 -0.323117 0.370141 -0.024423 1
344 197 -0.358381 0.298836 -0.025000 1
346 197 -0.379940 0.207096 -0.014590 1
348 197 -0.383522 0.103458 0.005776 1
350 197 -0.379638 0.003210 0.018639 1
352 197 -0.361092 -0.097506 0.022265 1
354 197 -0.329337 -0.198278 0.025079 1
356 197 -0.290271 -0.296821 0.031432 1
358 197 -0.238141 -0.400933 0.041753 1
360 197 -0.183639 -0.494694 0.043668 1
362 197 -0.134867 -0.562507 0.016935 1
364 197 -0.089966 -0.623630 -0.029187 1
366 197 -0.036183 -0.685409 -0.068930 1
368 197 0.037199 -0.740558 -0.091623 1
370 197 0.120451 -0.789986 -0.104016 1
372 197 0.194558 -0.813950 -0.117904 1
374 197 0.258952 -0.814364 -0.141299 1
376 197 0.313397 -0.794990 -0.181275 1
378 197 0.359245 -0.761101 -0.228747 1
380 197 0.408063 -0.727087 -0.254475 1
382 197 0.465358 -0.694423 -0.248502 1
384 197 0.529987 -0.659828 -0.220926 1
386 197 0.590331 -0.619284 -0.197883 1
388 197 0.647941 -0.568785 -0.197927 1
390 197 0.703805 -0.508048 -0.228273 1
392 197 0.750145 -0.441332 -0.259183 1
394 197 0.784426 -0.375493 -0.273201 1
396 197 0.810222 -0.316054 -0.265364 1
398 197 0.829220 -0.256585 -0.245829 1
400 197 0.839637 -0.181501 -0.221322 1
402 197 0.841430 -0.105536 -0.183033 1
404 197 0.899172 -0.094981 -0.201844 1
406 197 0.000000 0.000000 0.000000 0
408 197 0.000000 0.000000 0.000000 0
410 197 0.000000 0.000000 0.000000 0
412 197 0.000000 0.000000 0.000000 0
414 197 0.000000 0.000000 0.000000 0
416 197 0.000000 0.000000 0.000000 0
418 197 0.000000 0.000000 0.000000 0
420 197 0.000000 0.000000 0.000000 0
422 197 0.000000 0.000000 0.000000 0
424 197 0.000000 0.000000 0.000000 0
426 197 0.000000 0.000000 0.000000 0
428 197 0.000000 0.000000 0.000000 0
430 197 0.000000 0.000000 0.000000 0
432 197 0.000000 0.000000 0.000000 0
434 197 0.000000 0.000000 0.000000 0
436 197 0.000000 0.000000 0.000000 0
438 197 0.000000 0.000000 0.000000 0
440 197 0.000000 0.000000 0.000000 0
442 197 0.000000 0.000000 0.000000 0
444 197 0.000000 0.000000 0.000000 0
446 197 0.000000 0.000000 0.000000 0
308 199 0.000000 0.000000 0.000000 0
310 199 0.000000 0.000000 0.000000 0
312 199 0.000000 0.000000 0.000000 0
314 199 0.000000 0.000000 0.000000 0
316 199 0.368995 0.289345 -0.026287 1
318 199 0.333817 0.322816 -0.032365 1
320 199 0.299960 0.379556 -0.031725 1
322 199 0.263402 0.437814 -0.022550 1
324 199 0.224869 0.494026 -0.008550 1
326 199 0.182935 0.535135 0.012199 1
328 199 0.134245 0.572741 0.028859 1
330 199 0.074551 0.603302 0.028309 1
332 199 0.011055 0.611996 0.021829 1
334 199 -0.046487 0.598589 0.026183 1
336 199 -0.099097 0.569507 0.037970 1
338 199 -0.143897 0.522587 0.060386 1
340 199 -0.176703 0.468007 0.084415 1
342 199 -0.198296 0.401176 0.093916 1
344 199 -0.214827 0.315596 0.100880 1
346 199 -0.220744 0.211605 0.122204 1
348 199 -0.209698 0.094399 0.155843 1
350 199 -0.195382 -0.017890 0.177610 1
352 199 -0.167626 -0.131436 0.185112 1
354 199 -0.129190 -0.242334 0.185294 1
356 199 -0.082956 -0.351530 0.186279 1
358 199 -0.023012 -0.467428 0.191875 1
360 199 0.040441 -0.573805 0.190042 1
362 199 0.099636 -0.655418 0.157753 1
364 199 0.151880 -0.725789 0.104211 1
366 199 0.208212 -0.792237 0.052983 1
368 199 0.278144 -0.846126 0.021452 1
370 199 0.355321 -0.891664 0.002791 1
372 199 0.423998 -0.911324 -0.016512 1
374 199 0.484501 -0.909219 -0.047874 1
376 199 0.534425 -0.890163 -0.104331 1
378 199 0.572262 -0.857594 -0.173765 1
380 199 0.605412 -0.823356 -0.231627 1
382 199 0.642579 -0.787101 -0.257033 1
384 199 0.683346 -0.746193 -0.258367 1
386 199 0.718565 -0.697941 -0.251229 1
388 199 0.756752 -0.641113 -0.248828 1
390 199 0.797076 -0.575118 -0.258278 1
392 199 0.835747 -0.504961 -0.270241 1
394 199 0.866171 -0.434181 -0.273782 1
396 199 0.892449 -0.367405 -0.272885 1
398 199 0.915525 -0.299698 -0.271863 1
400 199 0.932925 -0.219396 -0.270145 1
402 199 0.942530 -0.140774 -0.249818 1
404 199 0.944567 -0.075216 -0.202655 1
406 199 0.995293 -0.059300 -0.209312 1
408 199 0.000000 0.000000 0.000000 0
410 199 0.000000 0.000000 0.000000 0
412 199 0.000000 0.000000 0.000000 0
414 199 0.000000 0.000000 0.000000 0
416 199 0.000000 0.000000 0.000000 0
418 199 0.000000 0.000000 0.000000 0
420 199 0.000000 0.000000 0.000000 0
422 199 0.000000 0.000000 0.000000 0
424 199 0.000000 0.000000 0.000000 0
426 199 0.000000 0.000000 0.000000 0
428 199 0.000000 0.000000 0.000000 0
430 199 0.000000 0.000000 0.000000 0
432 199 0.000000 0.000000 0.000000 0
434 199 0.000000 0.000000 0.000000 0
436 199 0.000000 0.000000 0.000000 0
438 199 0.000000 0.000000 0.000000 0
440 199 0.000000 0.000000 0.000000 0
442 199 0.000000 0.000000 0.000000 0
444 199 0.000000 0.000000 0.000000 0
446 199 0.000000 0.000000 0.000000 0
308 201 0.000000 0.000000 0.000000 0
310 201 0.000000 0.000000 0.000000 0
312 201 0.000000 0.000000 0.000000 0
314 201 0.000000 0.000000 0.000000 0
316 201 0.407135 0.305242 -0.037975 1
318 201 0.390406 0.350784 -0.042244 1
320 201 0.359239 0.418283 -0.037852 1
322 201 0.324372 0.490838 -0.026119 1
324 201 0.288612 0.560408 -0.010946 1
326 201 0.251488 0.613577 0.015354 1
328 201 0.207882 0.657324 0.045811 1
330 201 0.155015 0.689713 0.069811 1
332 201 0.097036 0.696202 0.090497 1
334 201 0.048855 0.674824 0.115670 1
336 201 0.012307 0.631621 0.139434 1
338 201 -0.012346 0.568280 0.166532 1
340 201 -0.019480 0.494087 0.199491 1
342 201 -0.020436 0.412180 0.224637 1
344 201 -0.019809 0.314596 0.258032 1
346 201 -0.011468 0.201109 0.301737 1
348 201 0.009780 0.076495 0.349139 1
350 201 0.030615 -0.044272 0.378366 1
352 201 0.058961 -0.164854 0.384787 1
354 201 0.093968 -0.283360 0.376489 1
356 201 0.137055 -0.399397 0.367449 1
358 201 0.194013 -0.523465 0.362890 1
360 201 0.258371 -0.640432 0.353226 1
362 201 0.321262 -0.733526 0.316530 1
364 201 0.381316 -0.815652 0.256814 1
366 201 0.443329 -0.887583 0.196452 1
368 201 0.515526 -0.941411 0.153579 1
370 201 0.591811 -0.983773 0.127273 1
372 201 0.660532 -0.998832 0.103905 1
374 201 0.721576 -0.992413 0.068954 1
376 201 0.772071 -0.970516 0.007398 1
378 201 0.804816 -0.935260 -0.076303 1
380 201 0.825687 -0.897554 -0.157291 1
382 201 0.840294 -0.854836 -0.217911 1
384 201 0.855137 -0.807213 -0.252592 1
386 201 0.863326 -0.754125 -0.269309 1
388 201 0.876577 -0.694160 -0.272256 1
390 201 0.898927 -0.627463 -0.271614 1
392 201 0.922779 -0.557413 -0.267382 1
394 201 0.944856 -0.485484 -0.262878 1
396 201 0.965384 -0.413998 -0.264838 1
398 201 0.986883 -0.339726 -0.275102 1
400 201 1.006358 -0.253940 -0.285914 1
402 201 1.021970 -0.169375 -0.279287 1
404 201 1.031235 -0.096275 -0.246305 1
406 201 1.035508 -0.032822 -0.208176 1
408 201 1.076911 -0.014778 -0.215774 1
410 201 0.000000 0.000000 0.000000 0
412 201 0.000000 0.000000 0.000000 0
414 201 0.000000 0.000000 0.000000 0
416 201 0.000000 0.000000 0.000000 0
418 201 0.000000 0.000000 0.000000 0
420 201 0.000000 0.000000 0.000000 0
422 201 0.000000 0.000000 0.000000 0
424 201 0.000000 0.000000 0.000000 0
426 201 0.000000 0.000000 0.000000 0
428 201 0.000000 0.000000 0.000000 0
430 201 0.000000 0.000000 0.000000 0
432 201 0.000000 0.000000 0.000000 0
434 201 0.000000 0.000000 0.000000 0
436 201 0.000000 0.000000 0.000000 0
438 201 0.000000 0.000000 0.000000 0
440 201 0.000000 0.000000 0.000000 0
442 201 0.000000 0.000000 0.000000 0
444 201 0.000000 0.000000 0.000000 0
446 201 0.000000 0.000000 0.000000 0
308 203 0.000000 0.000000 0.000000 0
310 203 0.000000 0.000000 0.000000 0
312 203 0.000000 0.000000 0.000000 0
314 203 0.000000 0.000000 0.000000 0
316 203 0.459786 0.322340 -0.053991 1
318 203 0.448473 0.371525 -0.055459 1
320 203 0.422912 0.447332 -0.049820 1
322 203 0.391314 0.529795 -0.037749 1
324 203 0.360504 0.609710 -0.020253 1
326 203 0.330865 0.668553 0.007783 1
328 203 0.299822 0.714065 0.042618 1
330 203 0.260129 0.744707 0.075362 1
332 203 0.216606 0.746346 0.113118 1
334 203 0.183764 0.715890 0.158735 1
336 203 0.164260 0.661036 0.199792 1
338 203 0.159896 0.583477 0.240297 1
340 203 0.169367 0.497318 0.288601 1
342 203 0.184224 0.402821 0.341934 1
344 203 0.194303 0.297976 0.401987 1
346 203 0.210683 0.181172 0.464185 1
348 203 0.235712 0.058413 0.512251 1
350 203 0.255990 -0.060349 0.535594 1
352 203 0.277878 -0.181260 0.532334 1
354 203 0.302978 -0.302377 0.516746 1
356 203 0.332060 -0.423151 0.499553 1
358 203 0.377036 -0.552872 0.487078 1
360 203 0.432232 -0.678329 0.470305 1
362 203 0.491741 -0.783101 0.431604 1
364 203 0.554946 -0.876949 0.370927 1
366 203 0.625008 -0.957626 0.304946 1
368 203 0.703174 -1.013358 0.255494 1
370 203 0.784396 -1.053971 0.221311 1
372 203 0.857589 -1.064833 0.194445 1
374 203 0.924131 -1.052602 0.160554 1
376 203 0.980202 -1.024065 0.104957 1
378 203 1.014867 -0.981850 0.026787 1
380 203 1.029935 -0.935338 -0.058579 1
382 203 1.032054 -0.885213 -0.136111 1
384 203 1.026223 -0.831357 -0.201646 1
386 203 1.013726 -0.776679 -0.246472 1
388 203 1.005612 -0.717520 -0.267843 1
390 203 1.008079 -0.653264 -0.271313 1
392 203 1.017126 -0.586285 -0.264208 1
394 203 1.026268 -0.517380 -0.255324 1
396 203 1.039152 -0.446189 -0.256180 1
398 203 1.055327 -0.369900 -0.267704 1
400 203 1.073190 -0.281108 -0.280990 1
402 203 1.090958 -0.191028 -0.280643 1
404 203 1.104255 -0.110153 -0.260965 1
406 203 1.110926 -0.042032 -0.237328 1
408 203 1.112013 -0.017431 -0.228249 1
410 203 0.000000 0.000000 0.000000 0
412 203 0.000000 0.000000 0.000000 0
414 203 0.000000 0.000000 0.000000 0
416 203 0.000000 0.000000 0.000000 0
418 203 0.000000 0.000000 0.000000 0
420 203 0.000000 0.000000 0.000000 0
422 203 0.000000 0.000000 0.000000 0
424 203 0.000000 0.000000 0.000000 0
426 203 0.000000 0.000000 0.000000 0
428 203 0.000000 0.000000 0.000000 0
430 203 0.000000 0.000000 0.000000 0
432 203 0.000000 0.000000 0.000000 0
434 203 0.000000 0.000000 0.000000 0
436 203 0.000000 0.000000 0.000000 0
438 203 0.000000 0.000000 0.000000 0
440 203 0.000000 0.000000 0.000000 0
442 203 0.000000 0.000000 0.000000 0
444 203 0.000000 0.000000 0.000000 0
446 203 0.000000 0.000000 0.000000 0
308 205 0.000000 0.000000 0.000000 0
310 205 0.000000 0.000000 0.000000 0
312 205 0.000000 0.000000 0.000000 0
314 205 0.000000 0.000000 0.000000 0
316 205 0.518702 0.334941 -0.062219 1
318 205 0.512604 0.387302 -0.059058 1
320 205 0.497139 0.469327 -0.052946 1
322 205 0.473732 0.558221 -0.038976 1
324 205 0.452077 0.643486 -0.013487 1
326 205 0.435624 0.704762 0.020059 1
328 205 0.419144 0.748965 0.055760 1
330 205 0.399778 0.774216 0.090441 1
332 205 0.374333 0.768618 0.135765 1
334 205 0.360809 0.727659 0.198225 1
336 205 0.358275 0.662847 0.256812 1
338 205 0.368115 0.577018 0.311747 1
340 205 0.388433 0.483362 0.375250 1
342 205 0.408958 0.383413 0.443881 1
344 205 0.422325 0.277813 0.511780 1
346 205 0.440083 0.166157 0.567738 1
348 205 0.463320 0.054655 0.592073 1
350 205 0.480040 -0.055316 0.593783 1
352 205 0.496288 -0.172812 0.578202 1
354 205 0.511295 -0.295810 0.559372 1
356 205 0.527590 -0.420942 0.539400 1
358 205 0.557501 -0.558315 0.516584 1
360 205 0.602253 -0.692917 0.492202 1
362 205 0.655729 -0.810750 0.450063 1
364 205 0.718559 -0.918716 0.387961 1
366 205 0.791254 -1.009597 0.323949 1
368 205 0.871305 -1.070350 0.280032 1
370 205 0.953968 -1.111155 0.246851 1
372 205 1.029832 -1.117931 0.219187 1
374 205 1.101409 -1.099510 0.188862 1
376 205 1.163389 -1.062913 0.146755 1
378 205 1.202509 -1.011173 0.090448 1
380 205 1.218786 -0.955129 0.024802 1
382 205 1.217365 -0.894124 -0.043638 1
384 205 1.204066 -0.833098 -0.118353 1
386 205 1.181069 -0.774781 -0.184977 1
388 205 1.159667 -0.715995 -0.228804 1
390 205 1.146762 -0.654204 -0.249879 1
392 205 1.139109 -0.592038 -0.254165 1
394 205 1.134252 -0.528499 -0.250217 1
396 205 1.133242 -0.462714 -0.250545 1
398 205 1.140657 -0.389188 -0.258634 1
400 205 1.150773 -0.301376 -0.269943 1
402 205 1.164172 -0.208836 -0.274636 1
404 205 1.174604 -0.123796 -0.267333 1
406 205 1.178871 -0.053119 -0.256982 1
408 205 1.179709 -0.028667 -0.252301 1
410 205 0.000000 0.000000 0.000000 0
412 205 0.000000 0.000000 0.000000 0
414 205 0.000000 0.000000 0.000000 0
416 205 0.000000 0.000000 0.000000 0
418 205 0.000000 0.000000 0.000000 0
420 205 0.000000 0.000000 0.000000 0
422 205 0.000000 0.000000 0.000000 0
424 205 0.000000 0.000000 0.000000 0
426 205 0.000000 0.000000 0.000000 0
428 205 0.000000 0.000000 0.000000 0
430 205 0.000000 0.000000 0.000000 0
432 205 0.000000 0.000000 0.000000 0
434 205 0.000000 0.000000 0.000000 0
436 205 0.000000 0.000000 0.000000 0
438 205 0.000000 0.000000 0.000000 0
440 205 0.000000 0.000000 0.000000 0
442 205 0.000000 0.000000 0.000000 0
444 205 0.000000 0.000000 0.000000 0
446 205 0.000000 0.000000 0.000000 0
308 207 0.000000 0.000000 0.000000 0
310 207 0.000000 0.000000 0.000000 0
312 207 0.000000 0.000000 0.000000 0
314 207 0.000000 0.000000 0.000000 0
316 207 0.600101 0.340152 -0.065259 1
318 207 0.593591 0.397750 -0.053991 1
320 207 0.587788 0.485660 -0.047156 1
322 207 0.576118 0.580513 -0.032483 1
324 207 0.565566 0.670321 0.001695 1
326 207 0.561966 0.733598 0.042511 1
328 207 0.561073 0.775826 0.080709 1
330 207 0.557890 0.795328 0.118712 1
332 207 0.553740 0.779115 0.174523 1
334 207 0.557370 0.727690 0.253351 1
336 207 0.570420 0.653408 0.330704 1
338 207 0.591577 0.562099 0.399221 1
340 207 0.618148 0.466397 0.467889 1
342 207 0.640413 0.366708 0.534131 1
344 207 0.653120 0.265796 0.588208 1
346 207 0.669740 0.164038 0.617869 1
348 207 0.691342 0.062958 0.613345 1
350 207 0.706882 -0.039121 0.591570 1
352 207 0.721548 -0.154676 0.567691 1
354 207 0.733310 -0.280131 0.548344 1
356 207 0.742087 -0.411266 0.521327 1
358 207 0.765171 -0.556056 0.484844 1
360 207 0.804445 -0.701496 0.449034 1
362 207 0.855085 -0.831515 0.398559 1
364 207 0.915775 -0.954079 0.329484 1
366 207 0.986114 -1.057587 0.269063 1
368 207 1.061357 -1.125272 0.240636 1
370 207 1.138038 -1.168344 0.221179 1
372 207 1.209514 -1.172128 0.196630 1
374 207 1.278755 -1.147006 0.169243 1
376 207 1.340301 -1.102785 0.137923 1
378 207 1.380054 -1.042319 0.102726 1
380 207 1.397964 -0.976363 0.064467 1
382 207 1.398143 -0.905123 0.018310 1
384 207 1.385404 -0.832366 -0.042506 1
386 207 1.362064 -0.766952 -0.109095 1
388 207 1.336213 -0.704526 -0.164942 1
390 207 1.313575 -0.643013 -0.203494 1
392 207 1.291298 -0.584246 -0.226190 1
394 207 1.268370 -0.526910 -0.236467 1
396 207 1.251324 -0.467359 -0.242286 1
398 207 1.242701 -0.400313 -0.249281 1
400 207 1.241476 -0.316306 -0.259091 1
402 207 1.244502 -0.225439 -0.267962 1
404 207 1.247581 -0.139458 -0.272327 1
406 207 1.247027 -0.067559 -0.273062 1
408 207 1.248059 -0.042558 -0.270585 1
410 207 0.000000 0.000000 0.000000 0
412 207 0.000000 0.000000 0.000000 0
414 207 0.000000 0.000000 0.000000 0
416 207 0.000000 0.000000 0.000000 0
418 207 0.000000 0.000000 0.000000 0
420 207 0.000000 0.000000 0.000000 0
422 207 0.000000 0.000000 0.000000 0
424 207 0.000000 0.000000 0.000000 0
426 207 0.000000 0.000000 0.000000 0
428 207 0.000000 0.000000 0.000000 0
430 207 0.000000 0.000000 0.000000 0
432 207 0.000000 0.000000 0.000000 0
434 207 0.000000 0.000000 0.000000 0
436 207 0.000000 0.000000 0.000000 0
438 207 0.000000 0.000000 0.000000 0
440 207 0.000000 0.000000 0.000000 0
442 207 0.000000 0.000000 0.000000 0
444 207 0.000000 0.000000 0.000000 0
446 207 0.000000 0.000000 0.000000 0
308 209 0.000000 0.000000 0.000000 0
310 209 0.000000 0.000000 0.000000 0
312 209 0.000000 0.000000 0.000000 0
314 209 0.000000 0.000000 0.000000 0
316 209 0.725870 0.327791 -0.070060 1
318 209 0.719868 0.392982 -0.053612 1
320 209 0.724980 0.490907 -0.048562 1
322 209 0.724693 0.591442 -0.036558 1
324 209 0.725660 0.685101 0.001549 1
326 209 0.733761 0.749287 0.047118 1
328 209 0.744789 0.789140 0.088607 1
330 209 0.757001 0.801622 0.134163 1
332 209 0.768189 0.776628 0.201863 1
334 209 0.787625 0.715114 0.298981 1
336 209 0.810300 0.634892 0.391152 1
338 209 0.837837 0.542313 0.468726 1
340 209 0.866012 0.450800 0.530520 1
342 209 0.886622 0.358155 0.576734 1
344 209 0.897301 0.266516 0.599370 1
346 209 0.913615 0.172371 0.601396 1
348 209 0.937400 0.076582 0.573415 1
350 209 0.956110 -0.024352 0.543765 1
352 209 0.973449 -0.141931 0.523515 1
354 209 0.986604 -0.271175 0.503445 1
356 209 0.995575 -0.406958 0.465074 1
358 209 1.018560 -0.557855 0.418360 1
360 209 1.058004 -0.709742 0.379246 1
362 209 1.105869 -0.849004 0.322289 1
364 209 1.161209 -0.982235 0.247277 1
366 209 1.223546 -1.096470 0.193504 1
368 209 1.288273 -1.170793 0.182882 1
370 209 1.354185 -1.216019 0.175836 1
372 209 1.412324 -1.217036 0.153570 1
374 209 1.470115 -1.187128 0.127365 1
376 209 1.520326 -1.136097 0.103044 1
378 209 1.554068 -1.068092 0.081498 1
380 209 1.569554 -0.993117 0.062395 1
382 209 1.570483 -0.910761 0.038404 1
384 209 1.560812 -0.826969 -0.001829 1
386 209 1.543440 -0.750900 -0.049184 1
388 209 1.520926 -0.682773 -0.098964 1
390 209 1.495756 -0.618686 -0.143628 1
392 209 1.463715 -0.561319 -0.180993 1
394 209 1.426047 -0.508103 -0.207386 1
396 209 1.391345 -0.455257 -0.224191 1
398 209 1.367227 -0.395321 -0.234686 1
400 209 1.349304 -0.319945 -0.244693 1
402 209 1.340328 -0.235113 -0.256011 1
404 209 1.333300 -0.153382 -0.267829 1
406 209 1.327134 -0.082574 -0.275401 1
408 209 1.325985 -0.057496 -0.275688 1
410 209 0.000000 0.000000 0.000000 0
412 209 0.000000 0.000000 0.000000 0
414 209 0.000000 0.000000 0.000000 0
416 209 0.000000 0.000000 0.000000 0
418 209 0.000000 0.000000 0.000000 0
420 209 0.000000 0.000000 0.000000 0
422 209 0.000000 0.000000 0.000000 0
424 209 0.000000 0.000000 0.000000 0
426 209 0.000000 0.000000 0.000000 0
428 209 0.000000 0.000000 0.000000 0
430 209 0.000000 0.000000 0.000000 0
432 209 0.000000 0.000000 0.000000 0
434 209 0.000000 0.000000 0.000000 0
436 209 0.000000 0.000000 0.000000 0
438 209 0.000000 0.000000 0.000000 0
440 209 0.000000 0.000000 0.000000 0
442 209 0.000000 0.000000 0.000000 0
444 209 0.000000 0.000000 0.000000 0
446 209 0.000000 0.000000 0.000000 0
308 211 0.000000 0.000000 0.000000 0
310 211 0.000000 0.000000 0.000000 0
312 211 0.000000 0.000000 0.000000 0
314 211 0.000000 0.000000 0.000000 0
316 211 0.863596 0.298778 -0.060501 1
318 211 0.858227 0.375061 -0.046828 1
320 211 0.874604 0.484610 -0.047994 1
322 211 0.892693 0.592676 -0.044692 1
324 211 0.906376 0.688269 -0.007537 1
326 211 0.928063 0.752106 0.042590 1
328 211 0.951791 0.789508 0.089033 1
330 211 0.977432 0.797820 0.140885 1
332 211 1.004035 0.767006 0.218127 1
334 211 1.034706 0.701673 0.324118 1
336 211 1.065940 0.618811 0.425984 1
338 211 1.096808 0.527791 0.506475 1
340 211 1.125060 0.441860 0.559533 1
342 211 1.143620 0.356293 0.585776 1
344 211 1.152984 0.269705 0.586068 1
346 211 1.170475 0.179272 0.565130 1
348 211 1.198902 0.083467 0.526495 1
350 211 1.225305 -0.019457 0.497013 1
352 211 1.248498 -0.139770 0.482912 1
354 211 1.267342 -0.271632 0.458129 1
356 211 1.281016 -0.409657 0.406187 1
358 211 1.306251 -0.562511 0.353914 1
360 211 1.345250 -0.718672 0.314424 1
362 211 1.388029 -0.863627 0.256159 1
364 211 1.434467 -1.005317 0.184524 1
366 211 1.487695 -1.127094 0.141333 1
368 211 1.541595 -1.206086 0.140673 1
370 211 1.594713 -1.253107 0.138132 1
372 211 1.638398 -1.252748 0.115592 1
374 211 1.677552 -1.219387 0.091236 1
376 211 1.712374 -1.163963 0.071557 1
378 211 1.733155 -1.088894 0.058108 1
380 211 1.741189 -1.005871 0.049404 1
382 211 1.737696 -0.914245 0.038120 1
384 211 1.728159 -0.819693 0.015338 1
386 211 1.714408 -0.734481 -0.015622 1
388 211 1.697601 -0.657644 -0.050427 1
390 211 1.674406 -0.588712 -0.090616 1
392 211 1.639347 -0.529001 -0.132218 1
394 211 1.593299 -0.476692 -0.169773 1
396 211 1.546616 -0.427693 -0.198320 1
398 211 1.506439 -0.375545 -0.217607 1
400 211 1.472924 -0.309432 -0.231852 1
402 211 1.446846 -0.235897 -0.245747 1
404 211 1.428619 -0.162008 -0.259888 1
406 211 1.414378 -0.095882 -0.269565 1
408 211 1.410978 -0.070235 -0.272263 1
410 211 0.000000 0.000000 0.000000 0
412 211 0.000000 0.000000 0.000000 0
414 211 0.000000 0.000000 0.000000 0
416 211 0.000000 0.000000 0.000000 0
418 211 0.000000 0.000000 0.000000 0
420 211 0.000000 0.000000 0.000000 0
422 211 0.000000 0.000000 0.000000 0
424 211 0.000000 0.000000 0.000000 0
426 211 0.000000 0.000000 0.000000 0
428 211 0.000000 0.000000 0.000000 0
430 211 0.000000 0.000000 0.000000 0
432 211 0.000000 0.000000 0.000000 0
434 211 0.000000 0.000000 0.000000 0
436 211 0.000000 0.000000 0.000000 0
438 211 0.000000 0.000000 0.000000 0
440 211 0.000000 0.000000 0.000000 0
442 211 0.000000 0.000000 0.000000 0
444 211 0.000000 0.000000 0.000000 0
446 211 0.000000 0.000000 0.000000 0
308 213 0.000000 0.000000 0.000000 0
310 213 0.000000 0.000000 0.000000 0
312 213 0.000000 0.000000 0.000000 0
314 213 0.000000 0.000000 0.000000 0
316 213 1.007061 0.251975 -0.028891 1
318 213 0.999490 0.339649 -0.021050 1
320 213 1.034908 0.462999 -0.033940 1
322 213 1.075788 0.577773 -0.043132 1
324 213 1.110292 0.674196 -0.015267 1
326 213 1.146587 0.736815 0.035845 1
328 213 1.184838 0.772598 0.087295 1
330 213 1.222650 0.780103 0.142615 1
332 213 1.260402 0.750052 0.220693 1
334 213 1.300109 0.688485 0.323461 1
336 213 1.336314 0.609598 0.421722 1
338 213 1.369230 0.523690 0.496936 1
340 213 1.396505 0.441167 0.544260 1
342 213 1.412868 0.357300 0.563558 1
344 213 1.420206 0.270456 0.556683 1
346 213 1.436943 0.178831 0.528478 1
348 213 1.469292 0.080095 0.487451 1
350 213 1.503460 -0.025516 0.461597 1
352 213 1.536671 -0.148122 0.449009 1
354 213 1.564368 -0.280953 0.413502 1
356 213 1.585965 -0.418636 0.351406 1
358 213 1.612969 -0.570979 0.300861 1