TITLE = "B00021"
VARIABLES = "X", "Y", "Vx", "Vy", "Vz", "flag"
ZONE T="B00021", I=70, J=78
308 191 0.000000 0.000000 0.000000 0
310 191 0.000000 0.000000 0.000000 0
312 191 0.000000 0.000000 0.000000 0
314 191 0.000000 0.000000 0.000000 0
316 191 0.000000 0.000000 0.000000 0
318 191 0.000000 0.000000 0.000000 0
320 191 0.000000 0.000000 0.000000 0
322 191 0.000000 0.000000 0.000000 0
324 191 0.000000 0.000000 0.000000 0
326 191 0.000000 0.000000 0.000000 0
328 191 0.000000 0.000000 0.000000 0
330 191 0.000000 0.000000 0.000000 0
332 191 0.000000 0.000000 0.000000 0
334 191 0.000000 0.000000 0.000000 0
336 191 0.000000 0.000000 0.000000 0
338 191 0.000000 0.000000 0.000000 0
340 191 0.000000 0.000000 0.000000 0
342 191 0.000000 0.000000 0.000000 0
344 191 0.000000 0.000000 0.000000 0
346 191 0.000000 0.000000 0.000000 0
348 191 0.000000 0.000000 0.000000 0
350 191 0.000000 0.000000 0.000000 0
352 191 0.000000 0.000000 0.000000 0
354 191 0.000000 0.000000 0.000000 0
356 191 0.000000 0.000000 0.000000 0
358 191 0.000000 0.000000 0.000000 0
360 191 0.000000 0.000000 0.000000 0
362 191 0.000000 0.000000 0.000000 0
364 191 0.000000 0.000000 0.000000 0
366 191 0.000000 0.000000 0.000000 0
368 191 0.000000 0.000000 0.000000 0
370 191 0.000000 0.000000 0.000000 0
372 191 0.000000 0.000000 0.000000 0
374 191 0.000000 0.000000 0.000000 0
376 191 0.000000 0.000000 0.000000 0
378 191 0.000000 0.000000 0.000000 0
380 191 0.000000 0.000000 0.000000 0
382 191 0.000000 0.000000 0.000000 0
384 191 0.000000 0.000000 0.000000 0
386 191 0.000000 0.000000 0.000000 0
388 191 0.000000 0.000000 0.000000 0
390 191 0.000000 0.000000 0.000000 0
392 191 0.000000 0.000000 0.000000 0
394 191 0.000000 0.000000 0.000000 0
396 191 0.000000 0.000000 0.000000 0
398 191 0.000000 0.000000 0.000000 0
400 191 0.000000 0.000000 0.000000 0
402 191 0.000000 0.000000 0.000000 0
404 191 0.000000 0.000000 0.000000 0
406 191 0.000000 0.000000 0.000000 0
408 191 0.000000 0.000000 0.000000 0
410 191 0.000000 0.000000 0.000000 0
412 191 0.000000 0.000000 0.000000 0
414 191 0.000000 0.000000 0.000000 0
416 191 0.000000 0.000000 0.000000 0
418 191 0.000000 0.000000 0.000000 0
420 191 0.000000 0.000000 0.000000 0
422 191 0.000000 0.000000 0.000000 0
424 191 0.000000 0.000000 0.000000 0
426 191 0.000000 0.000000 0.000000 0
428 191 0.000000 0.000000 0.000000 0
430 191 0.000000 0.000000 0.000000 0
432 191 0.000000 0.000000 0.000000 0
434 191 0.000000 0.000000 0.000000 0
436 191 0.000000 0.000000 0.000000 0
438 191 0.000000 0.000000 0.000000 0
440 191 0.000000 0.000000 0.000000 0
442 191 0.000000 0.000000 0.000000 0
444 191 0.000000 0.000000 0.000000 0
446 191 0.000000 0.000000 0.000000 0
308 193 0.000000 0.000000 0.000000 0
310 193 0.000000 0.000000 0.000000 0
312 193 0.000000 0.000000 0.000000 0
314 193 0.000000 0.000000 0.000000 0
316 193 0.000000 0.000000 0.000000 0
318 193 0.000000 0.000000 0.000000 0
320 193 0.000000 0.000000 0.000000 0
322 193 0.000000 0.000000 0.000000 0
324 193 0.000000 0.000000 0.000000 0
326 193 0.000000 0.000000 0.000000 0
328 193 0.000000 0.000000 0.000000 0
330 193 0.000000 0.000000 0.000000 0
332 193 0.000000 0.000000 0.000000 0
334 193 0.000000 0.000000 0.000000 0
336 193 0.000000 0.000000 0.000000 0
338 193 0.000000 0.000000 0.000000 0
340 193 0.000000 0.000000 0.000000 0
342 193 0.000000 0.000000 0.000000 0
344 193 0.000000 0.000000 0.000000 0
346 193 0.000000 0.000000 0.000000 0
348 193 0.000000 0.000000 0.000000 0
350 193 0.000000 0.000000 0.000000 0
352 193 0.000000 0.000000 0.000000 0
354 193 0.000000 0.000000 0.000000 0
356 193 0.000000 0.000000 0.000000 0
358 193 0.000000 0.000000 0.000000 0
360 193 0.000000 0.000000 0.000000 0
362 193 0.000000 0.000000 0.000000 0
364 193 0.000000 0.000000 0.000000 0
366 193 0.000000 0.000000 0.000000 0
368 193 0.000000 0.000000 0.000000 0
370 193 0.000000 0.000000 0.000000 0
372 193 0.000000 0.000000 0.000000 0
374 193 0.000000 0.000000 0.000000 0
376 193 0.000000 0.000000 0.000000 0
378 193 0.000000 0.000000 0.000000 0
380 193 0.000000 0.000000 0.000000 0
382 193 0.000000 0.000000 0.000000 0
384 193 0.000000 0.000000 0.000000 0
386 193 0.000000 0.000000 0.000000 0
388 193 0.000000 0.000000 0.000000 0
390 193 0.000000 0.000000 0.000000 0
392 193 0.000000 0.000000 0.000000 0
394 193 0.000000 0.000000 0.000000 0
396 193 0.000000 0.000000 0.000000 0
398 193 0.000000 0.000000 0.000000 0
400 193 0.000000 0.000000 0.000000 0
402 193 0.000000 0.000000 0.000000 0
404 193 0.000000 0.000000 0.000000 0
406 193 0.000000 0.000000 0.000000 0
408 193 0.000000 0.000000 0.000000 0
410 193 0.000000 0.000000 0.000000 0
412 193 0.000000 0.000000 0.000000 0
414 193 0.000000 0.000000 0.000000 0
416 193 0.000000 0.000000 0.000000 0
418 193 0.000000 0.000000 0.000000 0
420 193 0.000000 0.000000 0.000000 0
422 193 0.000000 0.000000 0.000000 0
424 193 0.000000 0.000000 0.000000 0
426 193 0.000000 0.000000 0.000000 0
428 193 0.000000 0.000000 0.000000 0
430 193 0.000000 0.000000 0.000000 0
432 193 0.000000 0.000000 0.000000 0
434 193 0.000000 0.000000 0.000000 0
436 193 0.000000 0.000000 0.000000 0
438 193 0.000000 0.000000 0.000000 0
440 193 0.000000 0.000000 0.000000 0
442 193 0.000000 0.000000 0.000000 0
444 193 0.000000 0.000000 0.000000 0
446 193 0.000000 0.000000 0.000000 0
308 195 0.000000 0.000000 0.000000 0
310 195 0.000000 0.000000 0.000000 0
312 195 0.000000 0.000000 0.000000 0
314 195 0.000000 0.000000 0.000000 0
316 195 0.000000 0.000000 0.000000 0
318 195 0.000000 0.000000 0.000000 0
320 195 0.000000 0.000000 0.000000 0
322 195 0.000000 0.000000 0.000000 0
324 195 0.000000 0.000000 0.000000 0
326 195 0.000000 0.000000 0.000000 0
328 195 0.000000 0.000000 0.000000 0
330 195 0.000000 0.000000 0.000000 0
332 195 0.000000 0.000000 0.000000 0
334 195 0.000000 0.000000 0.000000 0
336 195 0.000000 0.000000 0.000000 0
338 195 0.000000 0.000000 0.000000 0
340 195 0.000000 0.000000 0.000000 0
342 195 0.000000 0.000000 0.000000 0
344 195 0.000000 0.000000 0.000000 0
346 195 0.000000 0.000000 0.000000 0
348 195 0.000000 0.000000 0.000000 0
350 195 0.000000 0.000000 0.000000 0
352 195 0.000000 0.000000 0.000000 0
354 195 0.000000 0.000000 0.000000 0
356 195 0.000000 0.000000 0.000000 0
358 195 0.000000 0.000000 0.000000 0
360 195 0.000000 0.000000 0.000000 0
362 195 0.000000 0.000000 0.000000 0
364 195 0.000000 0.000000 0.000000 0
366 195 0.000000 0.000000 0.000000 0
368 195 0.000000 0.000000 0.000000 0
370 195 0.000000 0.000000 0.000000 0
372 195 0.000000 0.000000 0.000000 0
374 195 0.000000 0.000000 0.000000 0
376 195 0.000000 0.000000 0.000000 0
378 195 0.000000 0.000000 0.000000 0
380 195 0.000000 0.000000 0.000000 0
382 195 0.000000 0.000000 0.000000 0
384 195 0.000000 0.000000 0.000000 0
386 195 0.000000 0.000000 0.000000 0
388 195 0.000000 0.000000 0.000000 0
390 195 0.000000 0.000000 0.000000 0
392 195 0.000000 0.000000 0.000000 0
394 195 0.000000 0.000000 0.000000 0
396 195 0.000000 0.000000 0.000000 0
398 195 0.000000 0.000000 0.000000 0
400 195 0.000000 0.000000 0.000000 0
402 195 0.000000 0.000000 0.000000 0
404 195 0.000000 0.000000 0.000000 0
406 195 0.000000 0.000000 0.000000 0
408 195 0.000000 0.000000 0.000000 0
410 195 0.000000 0.000000 0.000000 0
412 195 0.000000 0.000000 0.000000 0
414 195 0.000000 0.000000 0.000000 0
416 195 0.000000 0.000000 0.000000 0
418 195 0.000000 0.000000 0.000000 0
420 195 0.000000 0.000000 0.000000 0
422 195 0.000000 0.000000 0.000000 0
424 195 0.000000 0.000000 0.000000 0
426 195 0.000000 0.000000 0.000000 0
428 195 0.000000 0.000000 0.000000 0
430 195 0.000000 0.000000 0.000000 0
432 195 0.000000 0.000000 0.000000 0
434 195 0.000000 0.000000 0.000000 0
436 195 0.000000 0.000000 0.000000 0
438 195 0.000000 0.000000 0.000000 0
440 195 0.000000 0.000000 0.000000 0
442 195 0.000000 0.000000 0.000000 0
444 195 0.000000 0.000000 0.000000 0
446 195 0.000000 0.000000 0.000000 0
308 197 0.000000 0.000000 0.000000 0
310 197 0.000000 0.000000 0.000000 0
312 197 0.000000 0.000000 0.000000 0
314 197 0.000000 0.000000 0.000000 0
316 197 0.000000 0.000000 0.000000 0
318 197 -0.045664 0.359647 -0.016423 1
320 197 -0.077203 0.323599 -0.022291 1
322 197 -0.140299 0.307621 -0.000186 1
324 197 -0.205316 0.294446 0.003411 1
326 197 -0.257533 0.269060 -0.019277 1
328 197 -0.295237 0.225391 -0.056906 1
330 197 -0.315160 0.161977 -0.087774 1
332 197 -0.320529 0.085089 -0.105796 1
334 197 -0.319789 0.005743 -0.103321 1
336 197 -0.312956 -0.068689 -0.094480 1
338 197 -0.300157 -0.142542 -0.089289 1
340 197 -0.283178 -0.220367 -0.092452 1
342 197 -0.256100 -0.295811 -0.109211 1
344 197 -0.219591 -0.368269 -0.139090 1
346 197 -0.179388 -0.430859 -0.168358 1
348 197 -0.130691 -0.482315 -0.189171 1
350 197 -0.076228 -0.527676 -0.199142 1
352 197 -0.017077 -0.564362 -0.185546 1
354 197 0.054965 -0.595978 -0.150202 1
356 197 0.137457 -0.614031 -0.119303 1
358 197 0.213033 -0.610203 -0.123089 1
360 197 0.279401 -0.599584 -0.145015 1
362 197 0.341760 -0.576424 -0.170489 1
364 197 0.401747 -0.541688 -0.190101 1
366 197 0.456695 -0.500250 -0.201928 1
368 197 0.506874 -0.453466 -0.199664 1
370 197 0.555249 -0.408139 -0.189127 1
372 197 0.598947 -0.366277 -0.181325 1
374 197 0.635241 -0.324502 -0.181081 1
376 197 0.658617 -0.277106 -0.180959 1
378 197 0.671503 -0.223024 -0.176423 1
380 197 0.682887 -0.169057 -0.176602 1
382 197 0.699512 -0.117344 -0.180785 1
384 197 0.718050 -0.068158 -0.182415 1
386 197 0.731023 -0.019653 -0.177417 1
388 197 0.735445 0.030509 -0.168346 1
390 197 0.735160 0.082426 -0.160788 1
392 197 0.732311 0.134484 -0.161741 1
394 197 0.726970 0.185905 -0.166512 1
396 197 0.719077 0.233916 -0.162362 1
398 197 0.706052 0.277264 -0.152046 1
400 197 0.684127 0.322856 -0.136768 1
402 197 0.657770 0.369214 -0.119628 1
404 197 0.689657 0.402075 -0.127528 1
406 197 0.000000 0.000000 0.000000 0
408 197 0.000000 0.000000 0.000000 0
410 197 0.000000 0.000000 0.000000 0
412 197 0.000000 0.000000 0.000000 0
414 197 0.000000 0.000000 0.000000 0
416 197 0.000000 0.000000 0.000000 0
418 197 0.000000 0.000000 0.000000 0
420 197 0.000000 0.000000 0.000000 0
422 197 0.000000 0.000000 0.000000 0
424 197 0.000000 0.000000 0.000000 0
426 197 0.000000 0.000000 0.000000 0
428 197 0.000000 0.000000 0.000000 0
430 197 0.000000 0.000000 0.000000 0
432 197 0.000000 0.000000 0.000000 0
434 197 0.000000 0.000000 0.000000 0
436 197 0.000000 0.000000 0.000000 0
438 197 0.000000 0.000000 0.000000 0
440 197 0.000000 0.000000 0.000000 0
442 197 0.000000 0.000000 0.000000 0
444 197 0.000000 0.000000 0.000000 0
446 197 0.000000 0.000000 0.000000 0
308 199 0.000000 0.000000 0.000000 0
310 199 0.000000 0.000000 0.000000 0
312 199 0.000000 0.000000 0.000000 0
314 199 0.000000 0.000000 0.000000 0
316 199 0.020263 0.428563 0.006462 1
318 199 -0.031071 0.416111 0.006455 1
320 199 -0.099328 0.410412 0.020949 1
322 199 -0.161538 0.389946 0.034820 1
324 199 -0.221767 0.364533 0.036515 1
326 199 -0.269781 0.324555 0.022435 1
328 199 -0.302047 0.263986 0.001342 1
330 199 -0.312239 0.185068 -0.012138 1
332 199 -0.303855 0.091351 -0.015774 1
334 199 -0.284256 -0.009083 -0.005868 1
336 199 -0.261900 -0.101026 -0.000500 1
338 199 -0.234902 -0.191472 -0.006354 1
340 199 -0.209606 -0.281202 -0.018626 1
342 199 -0.175726 -0.368544 -0.042881 1
344 199 -0.132874 -0.451223 -0.079570 1
346 199 -0.087292 -0.522287 -0.119044 1
348 199 -0.034482 -0.580325 -0.156316 1
350 199 0.022683 -0.629743 -0.183916 1
352 199 0.082708 -0.667880 -0.196277 1
354 199 0.151893 -0.697176 -0.189529 1
356 199 0.228211 -0.709608 -0.186923 1
358 199 0.296940 -0.699100 -0.205490 1
360 199 0.358789 -0.682480 -0.231478 1
362 199 0.417261 -0.654926 -0.251971 1
364 199 0.474129 -0.617719 -0.262971 1
366 199 0.525273 -0.573326 -0.264427 1
368 199 0.572452 -0.521678 -0.256360 1
370 199 0.618176 -0.468514 -0.243224 1
372 199 0.660171 -0.417159 -0.233633 1
374 199 0.697444 -0.367032 -0.230958 1
376 199 0.727169 -0.311784 -0.227503 1
378 199 0.748476 -0.251764 -0.219766 1
380 199 0.767382 -0.191219 -0.215110 1
382 199 0.784771 -0.133541 -0.214437 1
384 199 0.800607 -0.078684 -0.212417 1
386 199 0.811565 -0.025549 -0.204649 1
388 199 0.815934 0.028263 -0.192545 1
390 199 0.816879 0.084190 -0.179094 1
392 199 0.814495 0.139480 -0.173264 1
394 199 0.807855 0.194239 -0.170685 1
396 199 0.797088 0.245171 -0.163526 1
398 199 0.781484 0.291848 -0.155468 1
400 199 0.760577 0.341217 -0.148958 1
402 199 0.737495 0.391154 -0.142100 1
404 199 0.711190 0.437233 -0.133205 1
406 199 0.740249 0.471359 -0.138700 1
408 199 0.000000 0.000000 0.000000 0
410 199 0.000000 0.000000 0.000000 0
412 199 0.000000 0.000000 0.000000 0
414 199 0.000000 0.000000 0.000000 0
416 199 0.000000 0.000000 0.000000 0
418 199 0.000000 0.000000 0.000000 0
420 199 0.000000 0.000000 0.000000 0
422 199 0.000000 0.000000 0.000000 0
424 199 0.000000 0.000000 0.000000 0
426 199 0.000000 0.000000 0.000000 0
428 199 0.000000 0.000000 0.000000 0
430 199 0.000000 0.000000 0.000000 0
432 199 0.000000 0.000000 0.000000 0
434 199 0.000000 0.000000 0.000000 0
436 199 0.000000 0.000000 0.000000 0
438 199 0.000000 0.000000 0.000000 0
440 199 0.000000 0.000000 0.000000 0
442 199 0.000000 0.000000 0.000000 0
444 199 0.000000 0.000000 0.000000 0
446 199 0.000000 0.000000 0.000000 0
308 201 0.000000 0.000000 0.000000 0
310 201 0.000000 0.000000 0.000000 0
312 201 0.000000 0.000000 0.000000 0
314 201 0.000000 0.000000 0.000000 0
316 201 0.032407 0.489556 0.017508 1
318 201 -0.026851 0.502204 0.028995 1
320 201 -0.096625 0.495176 0.040164 1
322 201 -0.151529 0.466878 0.050151 1
324 201 -0.200310 0.427370 0.052973 1
326 201 -0.237862 0.367755 0.050072 1
328 201 -0.260701 0.290647 0.046466 1
330 201 -0.254018 0.195372 0.058926 1
332 201 -0.225496 0.084741 0.082212 1
334 201 -0.187983 -0.032781 0.111142 1
336 201 -0.151830 -0.140467 0.119803 1
338 201 -0.117796 -0.240490 0.106714 1
340 201 -0.085995 -0.338458 0.085086 1
342 201 -0.045335 -0.432415 0.056901 1
344 201 0.007808 -0.522293 0.021050 1
346 201 0.060994 -0.600420 -0.019803 1
348 201 0.115831 -0.663685 -0.064299 1
350 201 0.171442 -0.716169 -0.106694 1
352 201 0.226910 -0.753905 -0.137581 1
354 201 0.285811 -0.780047 -0.159276 1
356 201 0.348835 -0.789632 -0.181168 1
358 201 0.401652 -0.776654 -0.217652 1
360 201 0.451212 -0.756898 -0.254282 1
362 201 0.500746 -0.726697 -0.280023 1
364 201 0.549516 -0.686894 -0.291907 1
366 201 0.593997 -0.640202 -0.292815 1
368 201 0.633587 -0.584462 -0.284375 1
370 201 0.673811 -0.525207 -0.270750 1
372 201 0.711382 -0.466025 -0.259942 1
374 201 0.747913 -0.407507 -0.256691 1
376 201 0.781160 -0.345243 -0.253847 1
378 201 0.810168 -0.278315 -0.244989 1
380 201 0.835277 -0.212298 -0.235644 1
382 201 0.854998 -0.148384 -0.226701 1
384 201 0.869821 -0.088404 -0.218573 1
386 201 0.879646 -0.031289 -0.207703 1
388 201 0.884077 0.026384 -0.195314 1
390 201 0.885575 0.086159 -0.183296 1
392 201 0.882782 0.145675 -0.177327 1
394 201 0.874510 0.203390 -0.172843 1
396 201 0.861324 0.257141 -0.163786 1
398 201 0.844876 0.306658 -0.156449 1
400 201 0.826461 0.359228 -0.154177 1
402 201 0.807565 0.412885 -0.153694 1
404 201 0.784866 0.462892 -0.149143 1
406 201 0.758977 0.507057 -0.135914 1
408 201 0.785110 0.537460 -0.130057 1
410 201 0.000000 0.000000 0.000000 0
412 201 0.000000 0.000000 0.000000 0
414 201 0.000000 0.000000 0.000000 0
416 201 0.000000 0.000000 0.000000 0
418 201 0.000000 0.000000 0.000000 0
420 201 0.000000 0.000000 0.000000 0
422 201 0.000000 0.000000 0.000000 0
424 201 0.000000 0.000000 0.000000 0
426 201 0.000000 0.000000 0.000000 0
428 201 0.000000 0.000000 0.000000 0
430 201 0.000000 0.000000 0.000000 0
432 201 0.000000 0.000000 0.000000 0
434 201 0.000000 0.000000 0.000000 0
436 201 0.000000 0.000000 0.000000 0
438 201 0.000000 0.000000 0.000000 0
440 201 0.000000 0.000000 0.000000 0
442 201 0.000000 0.000000 0.000000 0
444 201 0.000000 0.000000 0.000000 0
446 201 0.000000 0.000000 0.000000 0
308 203 0.000000 0.000000 0.000000 0
310 203 0.000000 0.000000 0.000000 0
312 203 0.000000 0.000000 0.000000 0
314 203 0.000000 0.000000 0.000000 0
316 203 0.085852 0.560014 0.026343 1
318 203 0.026852 0.572349 0.037915 1
320 203 -0.030287 0.558686 0.055931 1
322 203 -0.063984 0.518645 0.073431 1
324 203 -0.087381 0.461313 0.087014 1
326 203 -0.108730 0.385277 0.097525 1
328 203 -0.115672 0.290320 0.115059 1
330 203 -0.094250 0.182793 0.150039 1
332 203 -0.051102 0.059425 0.200407 1
334 203 -0.007720 -0.068209 0.245611 1
336 203 0.029413 -0.183099 0.257510 1
338 203 0.063942 -0.287988 0.238250 1
340 203 0.100325 -0.389359 0.210889 1
342 203 0.151698 -0.487747 0.181086 1
344 203 0.216355 -0.582603 0.148507 1
346 203 0.277370 -0.666363 0.110719 1
348 203 0.332057 -0.733812 0.063541 1
350 203 0.384632 -0.788150 0.014191 1
352 203 0.434076 -0.823888 -0.029052 1
354 203 0.484787 -0.846436 -0.066286 1
356 203 0.533510 -0.853020 -0.108936 1
358 203 0.570075 -0.838505 -0.163584 1
360 203 0.602119 -0.816930 -0.218942 1
362 203 0.636358 -0.784529 -0.259568 1
364 203 0.672290 -0.742883 -0.281403 1
366 203 0.702889 -0.694761 -0.289980 1
368 203 0.729751 -0.638144 -0.285427 1
370 203 0.756319 -0.576782 -0.272192 1
372 203 0.783737 -0.513475 -0.260824 1
374 203 0.813492 -0.448236 -0.259924 1
376 203 0.844160 -0.378344 -0.262631 1
378 203 0.873509 -0.305347 -0.257039 1
380 203 0.900019 -0.233322 -0.244697 1
382 203 0.919777 -0.163981 -0.228486 1
384 203 0.933672 -0.098081 -0.212185 1
386 203 0.942295 -0.036684 -0.198362 1
388 203 0.945779 0.024958 -0.188157 1
390 203 0.945656 0.089079 -0.183146 1
392 203 0.940304 0.152171 -0.182244 1
394 203 0.928446 0.213266 -0.179444 1
396 203 0.913344 0.269608 -0.169369 1
398 203 0.897176 0.322171 -0.160443 1
400 203 0.881747 0.377506 -0.156824 1
402 203 0.866475 0.434292 -0.155584 1
404 203 0.848116 0.488389 -0.149460 1
406 203 0.826957 0.535855 -0.134624 1
408 203 0.817548 0.553073 -0.125439 1
410 203 0.000000 0.000000 0.000000 0
412 203 0.000000 0.000000 0.000000 0
414 203 0.000000 0.000000 0.000000 0
416 203 0.000000 0.000000 0.000000 0
418 203 0.000000 0.000000 0.000000 0
420 203 0.000000 0.000000 0.000000 0
422 203 0.000000 0.000000 0.000000 0
424 203 0.000000 0.000000 0.000000 0
426 203 0.000000 0.000000 0.000000 0
428 203 0.000000 0.000000 0.000000 0
430 203 0.000000 0.000000 0.000000 0
432 203 0.000000 0.000000 0.000000 0
434 203 0.000000 0.000000 0.000000 0
436 203 0.000000 0.000000 0.000000 0
438 203 0.000000 0.000000 0.000000 0
440 203 0.000000 0.000000 0.000000 0
442 203 0.000000 0.000000 0.000000 0
444 203 0.000000 0.000000 0.000000 0
446 203 0.000000 0.000000 0.000000 0
308 205 0.000000 0.000000 0.000000 0
310 205 0.000000 0.000000 0.000000 0
312 205 0.000000 0.000000 0.000000 0
314 205 0.000000 0.000000 0.000000 0
316 205 0.187417 0.608244 0.054535 1
318 205 0.141831 0.614718 0.070365 1
320 205 0.110651 0.589370 0.099058 1
322 205 0.108829 0.535410 0.130087 1
324 205 0.115919 0.463060 0.161759 1
326 205 0.119013 0.371489 0.195015 1
328 205 0.128808 0.265031 0.231350 1
330 205 0.161961 0.150330 0.281248 1
332 205 0.207240 0.023349 0.340049 1
334 205 0.243517 -0.105890 0.384511 1
336 205 0.273560 -0.222629 0.392423 1
338 205 0.306230 -0.329921 0.367683 1
340 205 0.348603 -0.435220 0.334049 1
342 205 0.409141 -0.538139 0.300630 1
344 205 0.482854 -0.639291 0.265987 1
346 205 0.547700 -0.727769 0.228540 1
348 205 0.601757 -0.798263 0.181906 1
350 205 0.652419 -0.852994 0.132224 1
352 205 0.698798 -0.885451 0.087045 1
354 205 0.744247 -0.901424 0.043521 1
356 205 0.785881 -0.902334 -0.007725 1
358 205 0.810668 -0.882301 -0.075139 1
360 205 0.828157 -0.857466 -0.145272 1
362 205 0.845836 -0.822352 -0.201550 1
364 205 0.864823 -0.778493 -0.238920 1
366 205 0.878424 -0.729544 -0.261071 1
368 205 0.882701 -0.675017 -0.267120 1
370 205 0.888821 -0.616614 -0.257239 1
372 205 0.894860 -0.554601 -0.248668 1
374 205 0.909786 -0.486271 -0.253841 1
376 205 0.928336 -0.411443 -0.266101 1
378 205 0.948812 -0.333827 -0.267605 1
380 205 0.969168 -0.257825 -0.256199 1
382 205 0.985088 -0.182473 -0.233868 1
384 205 0.997597 -0.110445 -0.210961 1
386 205 1.005403 -0.042083 -0.195229 1
388 205 1.007176 0.024961 -0.189564 1
390 205 1.003453 0.093785 -0.193221 1
392 205 0.993823 0.160603 -0.198376 1
394 205 0.978985 0.224379 -0.196707 1
396 205 0.962697 0.283849 -0.184112 1
398 205 0.947324 0.338979 -0.171328 1
400 205 0.934542 0.396511 -0.161231 1
402 205 0.922282 0.455640 -0.153771 1
404 205 0.907042 0.513058 -0.142648 1
406 205 0.889257 0.563418 -0.124953 1
408 205 0.880869 0.581197 -0.116811 1
410 205 0.000000 0.000000 0.000000 0
412 205 0.000000 0.000000 0.000000 0
414 205 0.000000 0.000000 0.000000 0
416 205 0.000000 0.000000 0.000000 0
418 205 0.000000 0.000000 0.000000 0
420 205 0.000000 0.000000 0.000000 0
422 205 0.000000 0.000000 0.000000 0
424 205 0.000000 0.000000 0.000000 0
426 205 0.000000 0.000000 0.000000 0
428 205 0.000000 0.000000 0.000000 0
430 205 0.000000 0.000000 0.000000 0
432 205 0.000000 0.000000 0.000000 0
434 205 0.000000 0.000000 0.000000 0
436 205 0.000000 0.000000 0.000000 0
438 205 0.000000 0.000000 0.000000 0
440 205 0.000000 0.000000 0.000000 0
442 205 0.000000 0.000000 0.000000 0
444 205 0.000000 0.000000 0.000000 0
446 205 0.000000 0.000000 0.000000 0
308 207 0.000000 0.000000 0.000000 0
310 207 0.000000 0.000000 0.000000 0
312 207 0.000000 0.000000 0.000000 0
314 207 0.000000 0.000000 0.000000 0
316 207 0.323060 0.637261 0.112589 1
318 207 0.286669 0.636552 0.132841 1
320 207 0.279774 0.601074 0.166169 1
322 207 0.307258 0.535113 0.204397 1
324 207 0.339290 0.451440 0.252009 1
326 207 0.362236 0.349948 0.307601 1
328 207 0.388688 0.236016 0.363712 1
330 207 0.429450 0.120835 0.416914 1
332 207 0.474145 -0.003632 0.467969 1
334 207 0.503907 -0.131540 0.501528 1
336 207 0.526466 -0.249357 0.500231 1
338 207 0.555942 -0.360403 0.467900 1
340 207 0.599500 -0.471076 0.424238 1
342 207 0.663129 -0.580767 0.378918 1
344 207 0.737623 -0.687862 0.336674 1
346 207 0.802805 -0.781469 0.296400 1
348 207 0.857006 -0.853989 0.252561 1
350 207 0.908095 -0.908781 0.207397 1
352 207 0.953912 -0.937684 0.165539 1
354 207 0.998610 -0.947082 0.123116 1
356 207 1.039382 -0.938973 0.071135 1
358 207 1.062684 -0.911077 0.003414 1
360 207 1.073956 -0.879435 -0.069647 1
362 207 1.082366 -0.839845 -0.132316 1
364 207 1.088874 -0.791811 -0.181654 1
366 207 1.086521 -0.740515 -0.219351 1
368 207 1.070471 -0.687606 -0.239201 1
370 207 1.048721 -0.635189 -0.240149 1
372 207 1.031203 -0.578548 -0.239404 1
374 207 1.022822 -0.513236 -0.254346 1
376 207 1.024024 -0.438997 -0.276502 1
378 207 1.029959 -0.361433 -0.286281 1
380 207 1.039524 -0.284162 -0.278121 1
382 207 1.049907 -0.205323 -0.252651 1
384 207 1.060798 -0.125906 -0.222648 1
386 207 1.068754 -0.049527 -0.204628 1
388 207 1.069429 0.025771 -0.201867 1
390 207 1.062552 0.100397 -0.211611 1
392 207 1.049798 0.171408 -0.221282 1
394 207 1.033398 0.238393 -0.220334 1
396 207 1.017060 0.300617 -0.205701 1
398 207 1.002439 0.358623 -0.187559 1
400 207 0.990570 0.417493 -0.170327 1
402 207 0.979200 0.477923 -0.154624 1
404 207 0.964359 0.537668 -0.138388 1
406 207 0.946430 0.590107 -0.119160 1
408 207 0.938750 0.608180 -0.111116 1
410 207 0.000000 0.000000 0.000000 0
412 207 0.000000 0.000000 0.000000 0
414 207 0.000000 0.000000 0.000000 0
416 207 0.000000 0.000000 0.000000 0
418 207 0.000000 0.000000 0.000000 0
420 207 0.000000 0.000000 0.000000 0
422 207 0.000000 0.000000 0.000000 0
424 207 0.000000 0.000000 0.000000 0
426 207 0.000000 0.000000 0.000000 0
428 207 0.000000 0.000000 0.000000 0
430 207 0.000000 0.000000 0.000000 0
432 207 0.000000 0.000000 0.000000 0
434 207 0.000000 0.000000 0.000000 0
436 207 0.000000 0.000000 0.000000 0
438 207 0.000000 0.000000 0.000000 0
440 207 0.000000 0.000000 0.000000 0
442 207 0.000000 0.000000 0.000000 0
444 207 0.000000 0.000000 0.000000 0
446 207 0.000000 0.000000 0.000000 0
308 209 0.000000 0.000000 0.000000 0
310 209 0.000000 0.000000 0.000000 0
312 209 0.000000 0.000000 0.000000 0
314 209 0.000000 0.000000 0.000000 0
316 209 0.529899 0.643476 0.193788 1
318 209 0.507936 0.635592 0.216446 1
320 209 0.522853 0.590529 0.245442 1
322 209 0.567739 0.516636 0.280492 1
324 209 0.614742 0.425709 0.334613 1
326 209 0.647347 0.321247 0.403881 1
328 209 0.680693 0.209053 0.466577 1
330 209 0.724988 0.101287 0.507681 1
332 209 0.770013 -0.016229 0.539015 1
334 209 0.797889 -0.140570 0.550369 1
336 209 0.816545 -0.260638 0.536712 1
338 209 0.840758 -0.378518 0.492664 1
340 209 0.879049 -0.498223 0.437520 1
342 209 0.935941 -0.616338 0.383361 1
344 209 1.003419 -0.729996 0.339180 1
346 209 1.065098 -0.826956 0.301695 1
348 209 1.117733 -0.900730 0.265522 1
350 209 1.168174 -0.955031 0.227262 1
352 209 1.212310 -0.980490 0.190785 1
354 209 1.256098 -0.982741 0.152196 1
356 209 1.298170 -0.965066 0.104992 1
358 209 1.324451 -0.924344 0.047804 1
360 209 1.337421 -0.882216 -0.014200 1
362 209 1.344233 -0.832153 -0.067518 1
364 209 1.345533 -0.776691 -0.115854 1
366 209 1.333180 -0.720390 -0.158723 1
368 209 1.299257 -0.667123 -0.191150 1
370 209 1.254912 -0.618139 -0.208363 1
372 209 1.208544 -0.569132 -0.226770 1
374 209 1.175496 -0.512094 -0.254447 1
376 209 1.151074 -0.447691 -0.287039 1
378 209 1.137632 -0.377241 -0.303500 1
380 209 1.131417 -0.304027 -0.298962 1
382 209 1.131411 -0.224319 -0.271425 1
384 209 1.137070 -0.140012 -0.236629 1
386 209 1.141130 -0.054665 -0.215327 1
388 209 1.139133 0.028239 -0.212367 1
390 209 1.129280 0.109597 -0.223847 1
392 209 1.115485 0.185243 -0.235660 1
394 209 1.099670 0.256068 -0.236235 1
396 209 1.084213 0.321947 -0.221836 1
398 209 1.069764 0.382289 -0.201184 1
400 209 1.056420 0.441694 -0.177496 1
402 209 1.042503 0.501736 -0.155956 1
404 209 1.023738 0.561591 -0.136483 1
406 209 1.002374 0.614317 -0.117894 1
408 209 0.994169 0.632068 -0.110393 1
410 209 0.000000 0.000000 0.000000 0
412 209 0.000000 0.000000 0.000000 0
414 209 0.000000 0.000000 0.000000 0
416 209 0.000000 0.000000 0.000000 0
418 209 0.000000 0.000000 0.000000 0
420 209 0.000000 0.000000 0.000000 0
422 209 0.000000 0.000000 0.000000 0
424 209 0.000000 0.000000 0.000000 0
426 209 0.000000 0.000000 0.000000 0
428 209 0.000000 0.000000 0.000000 0
430 209 0.000000 0.000000 0.000000 0
432 209 0.000000 0.000000 0.000000 0
434 209 0.000000 0.000000 0.000000 0
436 209 0.000000 0.000000 0.000000 0
438 209 0.000000 0.000000 0.000000 0
440 209 0.000000 0.000000 0.000000 0
442 209 0.000000 0.000000 0.000000 0
444 209 0.000000 0.000000 0.000000 0
446 209 0.000000 0.000000 0.000000 0
308 211 0.000000 0.000000 0.000000 0
310 211 0.000000 0.000000 0.000000 0
312 211 0.000000 0.000000 0.000000 0
314 211 0.000000 0.000000 0.000000 0
316 211 0.779614 0.637641 0.273011 1
318 211 0.771266 0.624559 0.299451 1
320 211 0.798199 0.573970 0.324900 1
322 211 0.857125 0.492899 0.353126 1
324 211 0.913254 0.397298 0.406463 1
326 211 0.950538 0.292489 0.477688 1
328 211 0.984784 0.184806 0.536332 1
330 211 1.028987 0.084217 0.560170 1
332 211 1.075472 -0.024596 0.563842 1
334 211 1.106977 -0.144710 0.550481 1
336 211 1.128223 -0.266503 0.515512 1
338 211 1.151866 -0.391759 0.458537 1
340 211 1.187279 -0.522692 0.396695 1
342 211 1.237497 -0.650600 0.343425 1
344 211 1.298338 -0.769858 0.306276 1
346 211 1.354536 -0.870050 0.277338 1
348 211 1.403050 -0.944748 0.248889 1
350 211 1.448846 -0.998903 0.218448 1
352 211 1.487905 -1.021895 0.186379 1
354 211 1.525437 -1.018136 0.151164 1
356 211 1.563569 -0.990909 0.109150 1
358 211 1.587832 -0.938090 0.062479 1
360 211 1.601164 -0.881209 0.017487 1
362 211 1.607343 -0.819359 -0.020393 1
364 211 1.606264 -0.752627 -0.053820 1
366 211 1.589534 -0.688795 -0.089515 1
368 211 1.547917 -0.629532 -0.126251 1
370 211 1.489289 -0.577733 -0.161036 1
372 211 1.425127 -0.530987 -0.199011 1
374 211 1.365575 -0.484392 -0.243017 1
376 211 1.317293 -0.432800 -0.283195 1
378 211 1.278702 -0.375876 -0.305573 1
380 211 1.252805 -0.310679 -0.305090 1
382 211 1.236369 -0.234193 -0.279512 1
384 211 1.229236 -0.148261 -0.243578 1
386 211 1.223718 -0.059020 -0.221177 1
388 211 1.214857 0.029932 -0.215817 1
390 211 1.202214 0.116051 -0.224913 1
392 211 1.188226 0.196622 -0.234825 1
394 211 1.173992 0.271894 -0.235650 1
396 211 1.159567 0.342074 -0.223436 1
398 211 1.144731 0.405710 -0.204300 1
400 211 1.128662 0.465925 -0.180454 1
402 211 1.109908 0.524948 -0.156883 1
404 211 1.086452 0.583425 -0.136339 1
406 211 1.061058 0.634752 -0.117974 1
408 211 1.052130 0.652294 -0.110162 1
410 211 0.000000 0.000000 0.000000 0
412 211 0.000000 0.000000 0.000000 0
414 211 0.000000 0.000000 0.000000 0
416 211 0.000000 0.000000 0.000000 0
418 211 0.000000 0.000000 0.000000 0
420 211 0.000000 0.000000 0.000000 0
422 211 0.000000 0.000000 0.000000 0
424 211 0.000000 0.000000 0.000000 0
426 211 0.000000 0.000000 0.000000 0
428 211 0.000000 0.000000 0.000000 0
430 211 0.000000 0.000000 0.000000 0
432 211 0.000000 0.000000 0.000000 0
434 211 0.000000 0.000000 0.000000 0
436 211 0.000000 0.000000 0.000000 0
438 211 0.000000 0.000000 0.000000 0
440 211 0.000000 0.000000 0.000000 0
442 211 0.000000 0.000000 0.000000 0
444 211 0.000000 0.000000 0.000000 0
446 211 0.000000 0.000000 0.000000 0
308 213 0.000000 0.000000 0.000000 0
310 213 0.000000 0.000000 0.000000 0
312 213 0.000000 0.000000 0.000000 0
314 213 0.000000 0.000000 0.000000 0
316 213 1.053099 0.619310 0.312374 1
318 213 1.049721 0.605419 0.344481 1
320 213 1.083197 0.552777 0.372277 1
322 213 1.146775 0.469144 0.400659 1
324 213 1.207700 0.371397 0.450872 1
326 213 1.245713 0.267560 0.514595 1
328 213 1.276737 0.162740 0.557894 1
330 213 1.317558 0.065180 0.561314 1
332 213 1.364458 -0.039139 0.540472 1
334 213 1.404480 -0.154952 0.501003 1
336 213 1.435522 -0.276950 0.449211 1
338 213 1.468447 -0.408642 0.382892 1
340 213 1.506742 -0.547741 0.323368 1
342 213 1.553547 -0.682591 0.280861 1
344 213 1.607021 -0.804506 0.255142 1
346 213 1.655576 -0.905568 0.234880 1
348 213 1.694720 -0.979938 0.214355 1
350 213 1.732456 -1.033183 0.190344 1
352 213 1.761102 -1.052868 0.164296 1
354 213 1.787039 -1.043546 0.133290 1