TITLE = "B00015"
VARIABLES = "X", "Y", "Vx", "Vy", "Vz", "flag"
ZONE T="B00015", I=70, J=78
308 191 0.000000 0.000000 0.000000 0
310 191 0.000000 0.000000 0.000000 0
312 191 0.000000 0.000000 0.000000 0
314 191 0.000000 0.000000 0.000000 0
316 191 0.000000 0.000000 0.000000 0
318 191 0.000000 0.000000 0.000000 0
320 191 0.000000 0.000000 0.000000 0
322 191 0.000000 0.000000 0.000000 0
324 191 0.000000 0.000000 0.000000 0
326 191 0.000000 0.000000 0.000000 0
328 191 0.000000 0.000000 0.000000 0
330 191 0.000000 0.000000 0.000000 0
332 191 0.000000 0.000000 0.000000 0
334 191 0.000000 0.000000 0.000000 0
336 191 0.000000 0.000000 0.000000 0
338 191 0.000000 0.000000 0.000000 0
340 191 0.000000 0.000000 0.000000 0
342 191 0.000000 0.000000 0.000000 0
344 191 0.000000 0.000000 0.000000 0
346 191 0.000000 0.000000 0.000000 0
348 191 0.000000 0.000000 0.000000 0
350 191 0.000000 0.000000 0.000000 0
352 191 0.000000 0.000000 0.000000 0
354 191 0.000000 0.000000 0.000000 0
356 191 0.000000 0.000000 0.000000 0
358 191 0.000000 0.000000 0.000000 0
360 191 0.000000 0.000000 0.000000 0
362 191 0.000000 0.000000 0.000000 0
364 191 0.000000 0.000000 0.000000 0
366 191 0.000000 0.000000 0.000000 0
368 191 0.000000 0.000000 0.000000 0
370 191 0.000000 0.000000 0.000000 0
372 191 0.000000 0.000000 0.000000 0
374 191 0.000000 0.000000 0.000000 0
376 191 0.000000 0.000000 0.000000 0
378 191 0.000000 0.000000 0.000000 0
380 191 0.000000 0.000000 0.000000 0
382 191 0.000000 0.000000 0.000000 0
384 191 0.000000 0.000000 0.000000 0
386 191 0.000000 0.000000 0.000000 0
388 191 0.000000 0.000000 0.000000 0
390 191 0.000000 0.000000 0.000000 0
392 191 0.000000 0.000000 0.000000 0
394 191 0.000000 0.000000 0.000000 0
396 191 0.000000 0.000000 0.000000 0
398 191 0.000000 0.000000 0.000000 0
400 191 0.000000 0.000000 0.000000 0
402 191 0.000000 0.000000 0.000000 0
404 191 0.000000 0.000000 0.000000 0
406 191 0.000000 0.000000 0.000000 0
408 191 0.000000 0.000000 0.000000 0
410 191 0.000000 0.000000 0.000000 0
412 191 0.000000 0.000000 0.000000 0
414 191 0.000000 0.000000 0.000000 0
416 191 0.000000 0.000000 0.000000 0
418 191 0.000000 0.000000 0.000000 0
420 191 0.000000 0.000000 0.000000 0
422 191 0.000000 0.000000 0.000000 0
424 191 0.000000 0.000000 0.000000 0
426 191 0.000000 0.000000 0.000000 0
428 191 0.000000 0.000000 0.000000 0
430 191 0.000000 0.000000 0.000000 0
432 191 0.000000 0.000000 0.000000 0
434 191 0.000000 0.000000 0.000000 0
436 191 0.000000 0.000000 0.000000 0
438 191 0.000000 0.000000 0.000000 0
440 191 0.000000 0.000000 0.000000 0
442 191 0.000000 0.000000 0.000000 0
444 191 0.000000 0.000000 0.000000 0
446 191 0.000000 0.000000 0.000000 0
308 193 0.000000 0.000000 0.000000 0
310 193 0.000000 0.000000 0.000000 0
312 193 0.000000 0.000000 0.000000 0
314 193 0.000000 0.000000 0.000000 0
316 193 0.000000 0.000000 0.000000 0
318 193 0.000000 0.000000 0.000000 0
320 193 0.000000 0.000000 0.000000 0
322 193 0.000000 0.000000 0.000000 0
324 193 0.000000 0.000000 0.000000 0
326 193 0.000000 0.000000 0.000000 0
328 193 0.000000 0.000000 0.000000 0
330 193 0.000000 0.000000 0.000000 0
332 193 0.000000 0.000000 0.000000 0
334 193 0.000000 0.000000 0.000000 0
336 193 0.000000 0.000000 0.000000 0
338 193 0.000000 0.000000 0.000000 0
340 193 0.000000 0.000000 0.000000 0
342 193 0.000000 0.000000 0.000000 0
344 193 0.000000 0.000000 0.000000 0
346 193 0.000000 0.000000 0.000000 0
348 193 0.000000 0.000000 0.000000 0
350 193 0.000000 0.000000 0.000000 0
352 193 0.000000 0.000000 0.000000 0
354 193 0.000000 0.000000 0.000000 0
356 193 0.000000 0.000000 0.000000 0
358 193 0.000000 0.000000 0.000000 0
360 193 0.000000 0.000000 0.000000 0
362 193 0.000000 0.000000 0.000000 0
364 193 0.000000 0.000000 0.000000 0
366 193 0.000000 0.000000 0.000000 0
368 193 0.000000 0.000000 0.000000 0
370 193 0.000000 0.000000 0.000000 0
372 193 0.000000 0.000000 0.000000 0
374 193 0.000000 0.000000 0.000000 0
376 193 0.000000 0.000000 0.000000 0
378 193 0.000000 0.000000 0.000000 0
380 193 0.000000 0.000000 0.000000 0
382 193 0.000000 0.000000 0.000000 0
384 193 0.000000 0.000000 0.000000 0
386 193 0.000000 0.000000 0.000000 0
388 193 0.000000 0.000000 0.000000 0
390 193 0.000000 0.000000 0.000000 0
392 193 0.000000 0.000000 0.000000 0
394 193 0.000000 0.000000 0.000000 0
396 193 0.000000 0.000000 0.000000 0
398 193 0.000000 0.000000 0.000000 0
400 193 0.000000 0.000000 0.000000 0
402 193 0.000000 0.000000 0.000000 0
404 193 0.000000 0.000000 0.000000 0
406 193 0.000000 0.000000 0.000000 0
408 193 0.000000 0.000000 0.000000 0
410 193 0.000000 0.000000 0.000000 0
412 193 0.000000 0.000000 0.000000 0
414 193 0.000000 0.000000 0.000000 0
416 193 0.000000 0.000000 0.000000 0
418 193 0.000000 0.000000 0.000000 0
420 193 0.000000 0.000000 0.000000 0
422 193 0.000000 0.000000 0.000000 0
424 193 0.000000 0.000000 0.000000 0
426 193 0.000000 0.000000 0.000000 0
428 193 0.000000 0.000000 0.000000 0
430 193 0.000000 0.000000 0.000000 0
432 193 0.000000 0.000000 0.000000 0
434 193 0.000000 0.000000 0.000000 0
436 193 0.000000 0.000000 0.000000 0
438 193 0.000000 0.000000 0.000000 0
440 193 0.000000 0.000000 0.000000 0
442 193 0.000000 0.000000 0.000000 0
444 193 0.000000 0.000000 0.000000 0
446 193 0.000000 0.000000 0.000000 0
308 195 0.000000 0.000000 0.000000 0
310 195 0.000000 0.000000 0.000000 0
312 195 0.000000 0.000000 0.000000 0
314 195 0.000000 0.000000 0.000000 0
316 195 0.000000 0.000000 0.000000 0
318 195 0.000000 0.000000 0.000000 0
320 195 0.000000 0.000000 0.000000 0
322 195 0.000000 0.000000 0.000000 0
324 195 0.000000 0.000000 0.000000 0
326 195 0.000000 0.000000 0.000000 0
328 195 0.000000 0.000000 0.000000 0
330 195 0.000000 0.000000 0.000000 0
332 195 0.000000 0.000000 0.000000 0
334 195 0.000000 0.000000 0.000000 0
336 195 0.000000 0.000000 0.000000 0
338 195 0.000000 0.000000 0.000000 0
340 195 0.000000 0.000000 0.000000 0
342 195 0.000000 0.000000 0.000000 0
344 195 0.000000 0.000000 0.000000 0
346 195 0.000000 0.000000 0.000000 0
348 195 0.000000 0.000000 0.000000 0
350 195 0.000000 0.000000 0.000000 0
352 195 0.000000 0.000000 0.000000 0
354 195 0.000000 0.000000 0.000000 0
356 195 0.000000 0.000000 0.000000 0
358 195 0.000000 0.000000 0.000000 0
360 195 0.000000 0.000000 0.000000 0
362 195 0.000000 0.000000 0.000000 0
364 195 0.000000 0.000000 0.000000 0
366 195 0.000000 0.000000 0.000000 0
368 195 0.000000 0.000000 0.000000 0
370 195 0.000000 0.000000 0.000000 0
372 195 0.000000 0.000000 0.000000 0
374 195 0.000000 0.000000 0.000000 0
376 195 0.000000 0.000000 0.000000 0
378 195 0.000000 0.000000 0.000000 0
380 195 0.000000 0.000000 0.000000 0
382 195 0.000000 0.000000 0.000000 0
384 195 0.000000 0.000000 0.000000 0
386 195 0.000000 0.000000 0.000000 0
388 195 0.000000 0.000000 0.000000 0
390 195 0.000000 0.000000 0.000000 0
392 195 0.000000 0.000000 0.000000 0
394 195 0.000000 0.000000 0.000000 0
396 195 0.000000 0.000000 0.000000 0
398 195 0.000000 0.000000 0.000000 0
400 195 0.000000 0.000000 0.000000 0
402 195 0.000000 0.000000 0.000000 0
404 195 0.000000 0.000000 0.000000 0
406 195 0.000000 0.000000 0.000000 0
408 195 0.000000 0.000000 0.000000 0
410 195 0.000000 0.000000 0.000000 0
412 195 0.000000 0.000000 0.000000 0
414 195 0.000000 0.000000 0.000000 0
416 195 0.000000 0.000000 0.000000 0
418 195 0.000000 0.000000 0.000000 0
420 195 0.000000 0.000000 0.000000 0
422 195 0.000000 0.000000 0.000000 0
424 195 0.000000 0.000000 0.000000 0
426 195 0.000000 0.000000 0.000000 0
428 195 0.000000 0.000000 0.000000 0
430 195 0.000000 0.000000 0.000000 0
432 195 0.000000 0.000000 0.000000 0
434 195 0.000000 0.000000 0.000000 0
436 195 0.000000 0.000000 0.000000 0
438 195 0.000000 0.000000 0.000000 0
440 195 0.000000 0.000000 0.000000 0
442 195 0.000000 0.000000 0.000000 0
444 195 0.000000 0.000000 0.000000 0
446 195 0.000000 0.000000 0.000000 0
308 197 0.000000 0.000000 0.000000 0
310 197 0.000000 0.000000 0.000000 0
312 197 0.000000 0.000000 0.000000 0
314 197 0.000000 0.000000 0.000000 0
316 197 0.000000 0.000000 0.000000 0
318 197 -0.196659 0.173649 -0.035297 1
320 197 -0.202698 0.123951 -0.049090 1
322 197 -0.237923 0.064913 -0.052389 1
324 197 -0.273054 0.008523 -0.056247 1
326 197 -0.288161 -0.050306 -0.059924 1
328 197 -0.285442 -0.115144 -0.065340 1
330 197 -0.268470 -0.177473 -0.075518 1
332 197 -0.228348 -0.233332 -0.085990 1
334 197 -0.173130 -0.284311 -0.096998 1
336 197 -0.125758 -0.327312 -0.110807 1
338 197 -0.091392 -0.365839 -0.123648 1
340 197 -0.058016 -0.404424 -0.138257 1
342 197 -0.018208 -0.431624 -0.161732 1
344 197 0.037115 -0.450152 -0.184734 1
346 197 0.103946 -0.462959 -0.183728 1
348 197 0.175574 -0.468067 -0.156754 1
350 197 0.243000 -0.467158 -0.133776 1
352 197 0.301649 -0.452447 -0.127167 1
354 197 0.355728 -0.423977 -0.125714 1
356 197 0.405624 -0.391314 -0.119667 1
358 197 0.449568 -0.357036 -0.114024 1
360 197 0.488903 -0.323910 -0.118921 1
362 197 0.523249 -0.289475 -0.136627 1
364 197 0.553678 -0.250494 -0.156610 1
366 197 0.580052 -0.208044 -0.171530 1
368 197 0.601636 -0.162105 -0.177729 1
370 197 0.619092 -0.116362 -0.177828 1
372 197 0.629364 -0.071391 -0.162730 1
374 197 0.637188 -0.028646 -0.138718 1
376 197 0.646957 0.013701 -0.122738 1
378 197 0.656005 0.058610 -0.124921 1
380 197 0.662597 0.104229 -0.138867 1
382 197 0.659680 0.149743 -0.145353 1
384 197 0.649404 0.195088 -0.138336 1
386 197 0.636878 0.238036 -0.122069 1
388 197 0.623034 0.274350 -0.105543 1
390 197 0.607231 0.303710 -0.090007 1
392 197 0.587852 0.330450 -0.081749 1
394 197 0.565601 0.359881 -0.088033 1
396 197 0.541980 0.396717 -0.106035 1
398 197 0.516954 0.436490 -0.126321 1
400 197 0.489486 0.477328 -0.132885 1
402 197 0.465365 0.513831 -0.117338 1
404 197 0.494397 0.546957 -0.089261 1
406 197 0.000000 0.000000 0.000000 0
408 197 0.000000 0.000000 0.000000 0
410 197 0.000000 0.000000 0.000000 0
412 197 0.000000 0.000000 0.000000 0
414 197 0.000000 0.000000 0.000000 0
416 197 0.000000 0.000000 0.000000 0
418 197 0.000000 0.000000 0.000000 0
420 197 0.000000 0.000000 0.000000 0
422 197 0.000000 0.000000 0.000000 0
424 197 0.000000 0.000000 0.000000 0
426 197 0.000000 0.000000 0.000000 0
428 197 0.000000 0.000000 0.000000 0
430 197 0.000000 0.000000 0.000000 0
432 197 0.000000 0.000000 0.000000 0
434 197 0.000000 0.000000 0.000000 0
436 197 0.000000 0.000000 0.000000 0
438 197 0.000000 0.000000 0.000000 0
440 197 0.000000 0.000000 0.000000 0
442 197 0.000000 0.000000 0.000000 0
444 197 0.000000 0.000000 0.000000 0
446 197 0.000000 0.000000 0.000000 0
308 199 0.000000 0.000000 0.000000 0
310 199 0.000000 0.000000 0.000000 0
312 199 0.000000 0.000000 0.000000 0
314 199 0.000000 0.000000 0.000000 0
316 199 -0.182104 0.264540 -0.023191 1
318 199 -0.207962 0.221614 -0.016916 1
320 199 -0.247462 0.161044 -0.007712 1
322 199 -0.279831 0.092055 -0.016570 1
324 199 -0.305315 0.021935 -0.029464 1
326 199 -0.311309 -0.049401 -0.042023 1
328 199 -0.301123 -0.128092 -0.055546 1
330 199 -0.278270 -0.204740 -0.069258 1
332 199 -0.231524 -0.277129 -0.081185 1
334 199 -0.167638 -0.348720 -0.092942 1
336 199 -0.113058 -0.408438 -0.111592 1
338 199 -0.070865 -0.460367 -0.136605 1
340 199 -0.031199 -0.505075 -0.165078 1
342 199 0.015220 -0.535730 -0.202757 1
344 199 0.075516 -0.555495 -0.237514 1
346 199 0.145992 -0.567860 -0.246677 1
348 199 0.219405 -0.570364 -0.228183 1
350 199 0.288361 -0.566242 -0.207764 1
352 199 0.349060 -0.547567 -0.197282 1
354 199 0.406990 -0.514953 -0.189708 1
356 199 0.462717 -0.475819 -0.180588 1
358 199 0.512017 -0.432132 -0.177965 1
360 199 0.555208 -0.388946 -0.185884 1
362 199 0.591900 -0.343455 -0.199549 1
364 199 0.623173 -0.295839 -0.208664 1
366 199 0.649988 -0.244681 -0.207170 1
368 199 0.672270 -0.191638 -0.202748 1
370 199 0.691170 -0.138579 -0.200006 1
372 199 0.703644 -0.086517 -0.192073 1
374 199 0.712694 -0.038130 -0.175284 1
376 199 0.720937 0.009229 -0.158351 1
378 199 0.726265 0.058041 -0.152689 1
380 199 0.728061 0.108466 -0.155830 1
382 199 0.722636 0.158763 -0.155303 1
384 199 0.711683 0.209226 -0.144716 1
386 199 0.698193 0.257102 -0.129339 1
388 199 0.682291 0.297833 -0.114259 1
390 199 0.663102 0.332377 -0.097546 1
392 199 0.641124 0.363291 -0.084747 1
394 199 0.616663 0.396226 -0.083111 1
396 199 0.592680 0.434356 -0.092573 1
398 199 0.570139 0.474184 -0.104935 1
400 199 0.548648 0.514052 -0.106468 1
402 199 0.530333 0.548770 -0.090476 1
404 199 0.513818 0.574461 -0.062486 1
406 199 0.533139 0.596816 -0.043314 1
408 199 0.000000 0.000000 0.000000 0
410 199 0.000000 0.000000 0.000000 0
412 199 0.000000 0.000000 0.000000 0
414 199 0.000000 0.000000 0.000000 0
416 199 0.000000 0.000000 0.000000 0
418 199 0.000000 0.000000 0.000000 0
420 199 0.000000 0.000000 0.000000 0
422 199 0.000000 0.000000 0.000000 0
424 199 0.000000 0.000000 0.000000 0
426 199 0.000000 0.000000 0.000000 0
428 199 0.000000 0.000000 0.000000 0
430 199 0.000000 0.000000 0.000000 0
432 199 0.000000 0.000000 0.000000 0
434 199 0.000000 0.000000 0.000000 0
436 199 0.000000 0.000000 0.000000 0
438 199 0.000000 0.000000 0.000000 0
440 199 0.000000 0.000000 0.000000 0
442 199 0.000000 0.000000 0.000000 0
444 199 0.000000 0.000000 0.000000 0
446 199 0.000000 0.000000 0.000000 0
308 201 0.000000 0.000000 0.000000 0
310 201 0.000000 0.000000 0.000000 0
312 201 0.000000 0.000000 0.000000 0
314 201 0.000000 0.000000 0.000000 0
316 201 -0.177025 0.306484 0.018235 1
318 201 -0.216483 0.265340 0.018751 1
320 201 -0.252838 0.194578 0.020417 1
322 201 -0.280835 0.115229 0.003464 1
324 201 -0.296744 0.033573 -0.012832 1
326 201 -0.289252 -0.052386 -0.026852 1
328 201 -0.269247 -0.143059 -0.040131 1
330 201 -0.235144 -0.233317 -0.045933 1
332 201 -0.176607 -0.320832 -0.045547 1
334 201 -0.101745 -0.407710 -0.045128 1
336 201 -0.039500 -0.480776 -0.063857 1
338 201 0.005396 -0.539012 -0.102320 1
340 201 0.043614 -0.586769 -0.156144 1
342 201 0.087063 -0.618451 -0.215719 1
344 201 0.141659 -0.638374 -0.270185 1
346 201 0.206378 -0.650143 -0.295262 1
348 201 0.272686 -0.651538 -0.288364 1
350 201 0.335774 -0.646509 -0.271534 1
352 201 0.392884 -0.627576 -0.254980 1
354 201 0.449392 -0.593728 -0.235221 1
356 201 0.507383 -0.550181 -0.219015 1
358 201 0.560077 -0.498072 -0.216202 1
360 201 0.607227 -0.445141 -0.225428 1
362 201 0.646495 -0.391308 -0.235792 1
364 201 0.679463 -0.335707 -0.235164 1
366 201 0.707428 -0.278475 -0.223149 1
368 201 0.731290 -0.218279 -0.211137 1
370 201 0.752344 -0.158149 -0.207986 1
372 201 0.767661 -0.098175 -0.207160 1
374 201 0.779003 -0.042682 -0.197689 1
376 201 0.787675 0.009543 -0.180035 1
378 201 0.791431 0.062200 -0.164329 1
380 201 0.791066 0.115564 -0.157298 1
382 201 0.783733 0.169440 -0.149692 1
384 201 0.771556 0.223529 -0.137369 1
386 201 0.755577 0.274713 -0.125803 1
388 201 0.736106 0.319238 -0.116254 1
390 201 0.713718 0.357979 -0.103663 1
392 201 0.688959 0.393989 -0.091677 1
394 201 0.662653 0.430161 -0.087036 1
396 201 0.637702 0.469415 -0.089295 1
398 201 0.616494 0.508626 -0.093356 1
400 201 0.597532 0.546554 -0.088552 1
402 201 0.580924 0.577505 -0.070671 1
404 201 0.563439 0.598116 -0.046264 1
406 201 0.540744 0.614786 -0.031638 1
408 201 0.551264 0.628690 -0.026998 1
410 201 0.000000 0.000000 0.000000 0
412 201 0.000000 0.000000 0.000000 0
414 201 0.000000 0.000000 0.000000 0
416 201 0.000000 0.000000 0.000000 0
418 201 0.000000 0.000000 0.000000 0
420 201 0.000000 0.000000 0.000000 0
422 201 0.000000 0.000000 0.000000 0
424 201 0.000000 0.000000 0.000000 0
426 201 0.000000 0.000000 0.000000 0
428 201 0.000000 0.000000 0.000000 0
430 201 0.000000 0.000000 0.000000 0
432 201 0.000000 0.000000 0.000000 0
434 201 0.000000 0.000000 0.000000 0
436 201 0.000000 0.000000 0.000000 0
438 201 0.000000 0.000000 0.000000 0
440 201 0.000000 0.000000 0.000000 0
442 201 0.000000 0.000000 0.000000 0
444 201 0.000000 0.000000 0.000000 0
446 201 0.000000 0.000000 0.000000 0
308 203 0.000000 0.000000 0.000000 0
310 203 0.000000 0.000000 0.000000 0
312 203 0.000000 0.000000 0.000000 0
314 203 0.000000 0.000000 0.000000 0
316 203 -0.130057 0.345492 0.114556 1
318 203 -0.147463 0.290927 0.096961 1
320 203 -0.160040 0.209625 0.082568 1
322 203 -0.173162 0.121977 0.051462 1
324 203 -0.178286 0.029977 0.030832 1
326 203 -0.160930 -0.067055 0.021012 1
328 203 -0.127591 -0.171090 0.015672 1
330 203 -0.081005 -0.272431 0.021718 1
332 203 -0.010278 -0.371704 0.040567 1
334 203 0.070026 -0.466944 0.054427 1
336 203 0.133205 -0.544271 0.036721 1
338 203 0.175468 -0.602802 -0.018033 1
340 203 0.207485 -0.649735 -0.094775 1
342 203 0.239629 -0.680531 -0.181554 1
344 203 0.282264 -0.699583 -0.254271 1
346 203 0.333586 -0.710065 -0.296512 1
348 203 0.386585 -0.710166 -0.303433 1
350 203 0.437470 -0.704946 -0.294576 1
352 203 0.481384 -0.687628 -0.277805 1
354 203 0.526517 -0.655637 -0.252877 1
356 203 0.575040 -0.611547 -0.230636 1
358 203 0.623024 -0.554985 -0.226121 1
360 203 0.668524 -0.495183 -0.234198 1
362 203 0.707076 -0.434408 -0.241895 1
364 203 0.739192 -0.372921 -0.237007 1
366 203 0.766098 -0.309572 -0.220122 1
368 203 0.789331 -0.243683 -0.206988 1
370 203 0.810563 -0.176019 -0.206965 1
372 203 0.826666 -0.108537 -0.212456 1
374 203 0.838888 -0.045444 -0.209401 1
376 203 0.847325 0.012681 -0.192223 1
378 203 0.850375 0.068675 -0.169249 1
380 203 0.848947 0.124255 -0.150143 1
382 203 0.840580 0.179944 -0.135847 1
384 203 0.826748 0.236567 -0.122138 1
386 203 0.807791 0.290304 -0.115101 1
388 203 0.784559 0.338140 -0.112618 1
390 203 0.758977 0.381851 -0.107315 1
392 203 0.732079 0.422830 -0.099736 1
394 203 0.703536 0.463461 -0.095469 1
396 203 0.677159 0.503662 -0.093317 1
398 203 0.655533 0.541606 -0.090220 1
400 203 0.636433 0.576851 -0.080520 1
402 203 0.618728 0.603715 -0.061317 1
404 203 0.599549 0.618874 -0.039648 1
406 203 0.576866 0.631083 -0.028038 1
408 203 0.568313 0.636867 -0.025987 1
410 203 0.000000 0.000000 0.000000 0
412 203 0.000000 0.000000 0.000000 0
414 203 0.000000 0.000000 0.000000 0
416 203 0.000000 0.000000 0.000000 0
418 203 0.000000 0.000000 0.000000 0
420 203 0.000000 0.000000 0.000000 0
422 203 0.000000 0.000000 0.000000 0
424 203 0.000000 0.000000 0.000000 0
426 203 0.000000 0.000000 0.000000 0
428 203 0.000000 0.000000 0.000000 0
430 203 0.000000 0.000000 0.000000 0
432 203 0.000000 0.000000 0.000000 0
434 203 0.000000 0.000000 0.000000 0
436 203 0.000000 0.000000 0.000000 0
438 203 0.000000 0.000000 0.000000 0
440 203 0.000000 0.000000 0.000000 0
442 203 0.000000 0.000000 0.000000 0
444 203 0.000000 0.000000 0.000000 0
446 203 0.000000 0.000000 0.000000 0
308 205 0.000000 0.000000 0.000000 0
310 205 0.000000 0.000000 0.000000 0
312 205 0.000000 0.000000 0.000000 0
314 205 0.000000 0.000000 0.000000 0
316 205 -0.020559 0.353387 0.218384 1
318 205 0.006029 0.293214 0.229968 1
320 205 0.037549 0.195907 0.211941 1
322 205 0.055550 0.100992 0.172794 1
324 205 0.064324 0.003596 0.151462 1
326 205 0.089248 -0.102035 0.147010 1
328 205 0.131273 -0.215657 0.146449 1
330 205 0.187374 -0.327280 0.153879 1
332 205 0.260171 -0.432695 0.174855 1
334 205 0.333760 -0.529385 0.184653 1
336 205 0.390796 -0.605075 0.160557 1
338 205 0.429801 -0.660929 0.095016 1
340 205 0.457984 -0.706041 0.002987 1
342 205 0.482965 -0.735535 -0.097039 1
344 205 0.513104 -0.752100 -0.181156 1
346 205 0.551442 -0.759397 -0.233693 1
348 205 0.590142 -0.754787 -0.252859 1
350 205 0.625255 -0.745806 -0.256809 1
352 205 0.650316 -0.726890 -0.253090 1
354 205 0.670070 -0.696664 -0.243294 1
356 205 0.697347 -0.655156 -0.230242 1
358 205 0.726409 -0.599854 -0.229037 1
360 205 0.761574 -0.538275 -0.234494 1
362 205 0.792345 -0.473998 -0.237481 1
364 205 0.818119 -0.407873 -0.228664 1
366 205 0.839336 -0.339838 -0.210153 1
368 205 0.857545 -0.268246 -0.198134 1
370 205 0.875724 -0.195046 -0.201018 1
372 205 0.889754 -0.120473 -0.210771 1
374 205 0.900519 -0.050262 -0.213168 1
376 205 0.906761 0.014691 -0.200494 1
378 205 0.907751 0.075429 -0.175421 1
380 205 0.904763 0.133376 -0.149432 1
382 205 0.895056 0.190938 -0.127610 1
384 205 0.879749 0.249402 -0.111528 1
386 205 0.858349 0.306282 -0.106415 1
388 205 0.832390 0.358256 -0.108787 1
390 205 0.804325 0.407950 -0.110104 1
392 205 0.775132 0.455260 -0.107853 1
394 205 0.744578 0.499833 -0.104280 1
396 205 0.715947 0.540121 -0.096970 1
398 205 0.692721 0.575416 -0.088424 1
400 205 0.671736 0.606369 -0.076611 1
402 205 0.652819 0.629292 -0.058929 1
404 205 0.633823 0.640751 -0.038881 1
406 205 0.612916 0.649607 -0.026572 1
408 205 0.605633 0.653909 -0.022923 1
410 205 0.000000 0.000000 0.000000 0
412 205 0.000000 0.000000 0.000000 0
414 205 0.000000 0.000000 0.000000 0
416 205 0.000000 0.000000 0.000000 0
418 205 0.000000 0.000000 0.000000 0
420 205 0.000000 0.000000 0.000000 0
422 205 0.000000 0.000000 0.000000 0
424 205 0.000000 0.000000 0.000000 0
426 205 0.000000 0.000000 0.000000 0
428 205 0.000000 0.000000 0.000000 0
430 205 0.000000 0.000000 0.000000 0
432 205 0.000000 0.000000 0.000000 0
434 205 0.000000 0.000000 0.000000 0
436 205 0.000000 0.000000 0.000000 0
438 205 0.000000 0.000000 0.000000 0
440 205 0.000000 0.000000 0.000000 0
442 205 0.000000 0.000000 0.000000 0
444 205 0.000000 0.000000 0.000000 0
446 205 0.000000 0.000000 0.000000 0
308 207 0.000000 0.000000 0.000000 0
310 207 0.000000 0.000000 0.000000 0
312 207 0.000000 0.000000 0.000000 0
314 207 0.000000 0.000000 0.000000 0
316 207 0.167635 0.361925 0.328861 1
318 207 0.196722 0.282501 0.358907 1
320 207 0.262205 0.171027 0.348674 1
322 207 0.314398 0.067560 0.323039 1
324 207 0.336442 -0.031823 0.311746 1
326 207 0.363894 -0.140406 0.314525 1
328 207 0.409428 -0.260625 0.312667 1
330 207 0.468997 -0.378771 0.307586 1
332 207 0.539390 -0.489210 0.308566 1
334 207 0.606354 -0.586452 0.300555 1
336 207 0.658529 -0.660916 0.263620 1
338 207 0.698801 -0.715565 0.192010 1
340 207 0.730429 -0.760378 0.096969 1
342 207 0.755871 -0.788863 -0.004786 1
344 207 0.781750 -0.802177 -0.088293 1
346 207 0.810593 -0.802923 -0.143095 1
348 207 0.839251 -0.790138 -0.168675 1
350 207 0.860957 -0.772217 -0.184598 1
352 207 0.867376 -0.746933 -0.200403 1
354 207 0.863437 -0.714973 -0.217307 1
356 207 0.861298 -0.676575 -0.232166 1
358 207 0.867760 -0.625629 -0.243093 1
360 207 0.882958 -0.567502 -0.249069 1
362 207 0.900500 -0.504063 -0.246472 1
364 207 0.914214 -0.436955 -0.231618 1
366 207 0.925142 -0.366534 -0.209501 1
368 207 0.935968 -0.292406 -0.195539 1
370 207 0.948491 -0.215459 -0.196861 1
372 207 0.959586 -0.136493 -0.205581 1
374 207 0.967783 -0.059228 -0.210889 1
376 207 0.971134 0.013127 -0.204440 1
378 207 0.969020 0.080595 -0.183960 1
380 207 0.963050 0.142890 -0.156777 1
382 207 0.951288 0.203012 -0.131002 1
384 207 0.934315 0.264146 -0.111159 1
386 207 0.911521 0.324129 -0.104746 1
388 207 0.883591 0.380754 -0.108021 1
390 207 0.853372 0.436321 -0.113012 1
392 207 0.821969 0.489475 -0.113984 1
394 207 0.789343 0.537717 -0.109430 1
396 207 0.758836 0.577475 -0.097430 1
398 207 0.732890 0.608469 -0.083427 1
400 207 0.709361 0.634598 -0.071091 1
402 207 0.689135 0.653406 -0.055710 1
404 207 0.671477 0.662556 -0.035717 1
406 207 0.652980 0.669563 -0.019904 1
408 207 0.647197 0.672736 -0.012272 1
410 207 0.000000 0.000000 0.000000 0
412 207 0.000000 0.000000 0.000000 0
414 207 0.000000 0.000000 0.000000 0
416 207 0.000000 0.000000 0.000000 0
418 207 0.000000 0.000000 0.000000 0
420 207 0.000000 0.000000 0.000000 0
422 207 0.000000 0.000000 0.000000 0
424 207 0.000000 0.000000 0.000000 0
426 207 0.000000 0.000000 0.000000 0
428 207 0.000000 0.000000 0.000000 0
430 207 0.000000 0.000000 0.000000 0
432 207 0.000000 0.000000 0.000000 0
434 207 0.000000 0.000000 0.000000 0
436 207 0.000000 0.000000 0.000000 0
438 207 0.000000 0.000000 0.000000 0
440 207 0.000000 0.000000 0.000000 0
442 207 0.000000 0.000000 0.000000 0
444 207 0.000000 0.000000 0.000000 0
446 207 0.000000 0.000000 0.000000 0
308 209 0.000000 0.000000 0.000000 0
310 209 0.000000 0.000000 0.000000 0
312 209 0.000000 0.000000 0.000000 0
314 209 0.000000 0.000000 0.000000 0
316 209 0.459707 0.351130 0.383000 1
318 209 0.493417 0.258328 0.416911 1
320 209 0.566462 0.133457 0.421008 1
322 209 0.627168 0.025902 0.414792 1
324 209 0.651548 -0.071941 0.424806 1
326 209 0.672692 -0.178802 0.438540 1
328 209 0.713752 -0.300122 0.434401 1
330 209 0.773081 -0.421934 0.409704 1
332 209 0.842569 -0.535327 0.388220 1
334 209 0.908975 -0.634679 0.358019 1
336 209 0.962328 -0.710763 0.312605 1
338 209 1.006239 -0.767728 0.243651 1
340 209 1.042421 -0.813904 0.158643 1
342 209 1.071048 -0.840849 0.069996 1
344 209 1.096395 -0.846687 -0.000769 1
346 209 1.121111 -0.837139 -0.049788 1
348 209 1.141524 -0.809201 -0.076698 1
350 209 1.153382 -0.778536 -0.099993 1
352 209 1.146054 -0.742220 -0.131691 1
354 209 1.123544 -0.704525 -0.175144 1
356 209 1.099056 -0.665620 -0.218249 1
358 209 1.078010 -0.618493 -0.249887 1
360 209 1.069619 -0.565282 -0.262682 1
362 209 1.060940 -0.508371 -0.259073 1
364 209 1.052922 -0.446647 -0.240893 1
366 209 1.044126 -0.380673 -0.215953 1
368 209 1.040046 -0.309463 -0.198379 1
370 209 1.042058 -0.233490 -0.194658 1
372 209 1.044622 -0.152459 -0.198077 1
374 209 1.047451 -0.070293 -0.203290 1
376 209 1.045129 0.010398 -0.203296 1
378 209 1.038594 0.085806 -0.190398 1
380 209 1.028148 0.154414 -0.168026 1
382 209 1.012749 0.218912 -0.142471 1
384 209 0.993593 0.283267 -0.120732 1
386 209 0.968983 0.347106 -0.110704 1
388 209 0.939318 0.407398 -0.111391 1
390 209 0.906490 0.467569 -0.115187 1
392 209 0.872895 0.523928 -0.114173 1
394 209 0.838681 0.573115 -0.104702 1
396 209 0.806560 0.611013 -0.087026 1
398 209 0.778275 0.638460 -0.069768 1
400 209 0.751969 0.659738 -0.055538 1
402 209 0.731628 0.675813 -0.038107 1
404 209 0.716877 0.683911 -0.012478 1
406 209 0.701665 0.690047 0.009944 1
408 209 0.696393 0.692949 0.020192 1
410 209 0.000000 0.000000 0.000000 0
412 209 0.000000 0.000000 0.000000 0
414 209 0.000000 0.000000 0.000000 0
416 209 0.000000 0.000000 0.000000 0
418 209 0.000000 0.000000 0.000000 0
420 209 0.000000 0.000000 0.000000 0
422 209 0.000000 0.000000 0.000000 0
424 209 0.000000 0.000000 0.000000 0
426 209 0.000000 0.000000 0.000000 0
428 209 0.000000 0.000000 0.000000 0
430 209 0.000000 0.000000 0.000000 0
432 209 0.000000 0.000000 0.000000 0
434 209 0.000000 0.000000 0.000000 0
436 209 0.000000 0.000000 0.000000 0
438 209 0.000000 0.000000 0.000000 0
440 209 0.000000 0.000000 0.000000 0
442 209 0.000000 0.000000 0.000000 0
444 209 0.000000 0.000000 0.000000 0
446 209 0.000000 0.000000 0.000000 0
308 211 0.000000 0.000000 0.000000 0
310 211 0.000000 0.000000 0.000000 0
312 211 0.000000 0.000000 0.000000 0
314 211 0.000000 0.000000 0.000000 0
316 211 0.804190 0.324532 0.416438 1
318 211 0.840689 0.222397 0.447147 1
320 211 0.906724 0.091007 0.454259 1
322 211 0.966020 -0.018276 0.459715 1
324 211 0.990782 -0.112384 0.479065 1
326 211 1.004858 -0.214950 0.496235 1
328 211 1.038042 -0.334895 0.485028 1
330 211 1.093814 -0.458655 0.444129 1
332 211 1.162273 -0.575316 0.403502 1
334 211 1.229402 -0.678027 0.359989 1
336 211 1.283868 -0.758080 0.308270 1
338 211 1.328163 -0.818368 0.247152 1
340 211 1.364655 -0.865866 0.181211 1
342 211 1.394745 -0.889729 0.114825 1
344 211 1.421533 -0.886747 0.061352 1
346 211 1.445214 -0.863547 0.023108 1
348 211 1.462312 -0.822175 -0.000384 1
350 211 1.468569 -0.776693 -0.023989 1
352 211 1.455597 -0.728865 -0.060035 1
354 211 1.425984 -0.680973 -0.113456 1
356 211 1.388350 -0.635670 -0.174270 1
358 211 1.348832 -0.586152 -0.222884 1
360 211 1.312818 -0.535681 -0.251171 1
362 211 1.276293 -0.486125 -0.255740 1
364 211 1.235031 -0.436354 -0.243411 1
366 211 1.199313 -0.380535 -0.222105 1
368 211 1.171765 -0.317506 -0.206199 1
370 211 1.154925 -0.246343 -0.199544 1
372 211 1.143781 -0.166280 -0.198895 1
374 211 1.135178 -0.080801 -0.201825 1
376 211 1.125177 0.006100 -0.204420 1
378 211 1.112527 0.090443 -0.197511 1
380 211 1.097562 0.166708 -0.180564 1
382 211 1.078250 0.237457 -0.157710 1
384 211 1.055996 0.306527 -0.135610 1
386 211 1.028881 0.373777 -0.122933 1
388 211 0.996168 0.437393 -0.118859 1
390 211 0.960189 0.499682 -0.118704 1
392 211 0.923409 0.556493 -0.112039 1
394 211 0.887581 0.604464 -0.095482 1
396 211 0.854680 0.640594 -0.071341 1
398 211 0.825019 0.665903 -0.048892 1
400 211 0.797710 0.685432 -0.028257 1
402 211 0.778376 0.699839 -0.001597 1
404 211 0.767070 0.707464 0.033092 1
406 211 0.756217 0.712964 0.064207 1
408 211 0.752764 0.715735 0.074862 1
410 211 0.000000 0.000000 0.000000 0
412 211 0.000000 0.000000 0.000000 0
414 211 0.000000 0.000000 0.000000 0
416 211 0.000000 0.000000 0.000000 0
418 211 0.000000 0.000000 0.000000 0
420 211 0.000000 0.000000 0.000000 0
422 211 0.000000 0.000000 0.000000 0
424 211 0.000000 0.000000 0.000000 0
426 211 0.000000 0.000000 0.000000 0
428 211 0.000000 0.000000 0.000000 0
430 211 0.000000 0.000000 0.000000 0
432 211 0.000000 0.000000 0.000000 0
434 211 0.000000 0.000000 0.000000 0
436 211 0.000000 0.000000 0.000000 0
438 211 0.000000 0.000000 0.000000 0
440 211 0.000000 0.000000 0.000000 0
442 211 0.000000 0.000000 0.000000 0
444 211 0.000000 0.000000 0.000000 0
446 211 0.000000 0.000000 0.000000 0
308 213 0.000000 0.000000 0.000000 0
310 213 0.000000 0.000000 0.000000 0
312 213 0.000000 0.000000 0.000000 0
314 213 0.000000 0.000000 0.000000 0
316 213 1.130124 0.303936 0.419585 1
318 213 1.161497 0.197317 0.454805 1
320 213 1.222496 0.060711 0.470469 1
322 213 1.282286 -0.052959 0.487660 1
324 213 1.313208 -0.146883 0.503518 1
326 213 1.327548 -0.245431 0.499257 1
328 213 1.357390 -0.362458 0.457665 1
330 213 1.409347 -0.487216 0.396445 1
332 213 1.473499 -0.607367 0.348583 1
334 213 1.535613 -0.715030 0.303576 1
336 213 1.585070 -0.798482 0.252811 1
338 213 1.622036 -0.859912 0.204096 1
340 213 1.653461 -0.904924 0.157932 1
342 213 1.681129 -0.922378 0.115955 1
344 213 1.708673 -0.909797 0.081090 1
346 213 1.734033 -0.876146 0.055796 1
348 213 1.752743 -0.823787 0.042598 1
350 213 1.760088 -0.768976 0.025993 1
352 213 1.748977 -0.709851 -0.002725 1